 Entering Gaussian System, Link 0=/software/sse/easybuild/prefix/software/Gaussian/16.C.01-avx2-nsc1/g16/g16.orig
 Input=acetate-19-oep.wrap
 Output=acetate-19-oep.log
 Initial command:
 /software/sse/easybuild/prefix/software/Gaussian/16.C.01-avx2-nsc1/g16/l1.exe "acetate-19-oep..dir/Gau-63209.inp" -scrdir="acetate-19-oep..dir/"
 Entering Link 1 = /software/sse/easybuild/prefix/software/Gaussian/16.C.01-avx2-nsc1/g16/l1.exe PID=     63210.
  
 Copyright (c) 1988-2019, Gaussian, Inc.  All Rights Reserved.
  
 This is part of the Gaussian(R) 16 program.  It is based on
 the Gaussian(R) 09 system (copyright 2009, Gaussian, Inc.),
 the Gaussian(R) 03 system (copyright 2003, Gaussian, Inc.),
 the Gaussian(R) 98 system (copyright 1998, Gaussian, Inc.),
 the Gaussian(R) 94 system (copyright 1995, Gaussian, Inc.),
 the Gaussian 92(TM) system (copyright 1992, Gaussian, Inc.),
 the Gaussian 90(TM) system (copyright 1990, Gaussian, Inc.),
 the Gaussian 88(TM) system (copyright 1988, Gaussian, Inc.),
 the Gaussian 86(TM) system (copyright 1986, Carnegie Mellon
 University), and the Gaussian 82(TM) system (copyright 1983,
 Carnegie Mellon University). Gaussian is a federally registered
 trademark of Gaussian, Inc.
  
 This software contains proprietary and confidential information,
 including trade secrets, belonging to Gaussian, Inc.
  
 This software is provided under written license and may be
 used, copied, transmitted, or stored only in accord with that
 written license.
  
 The following legend is applicable only to US Government
 contracts under FAR:
  
                    RESTRICTED RIGHTS LEGEND
  
 Use, reproduction and disclosure by the US Government is
 subject to restrictions as set forth in subparagraphs (a)
 and (c) of the Commercial Computer Software - Restricted
 Rights clause in FAR 52.227-19.
  
 Gaussian, Inc.
 340 Quinnipiac St., Bldg. 40, Wallingford CT 06492
  
  
 ---------------------------------------------------------------
 Warning -- This program may not be used in any manner that
 competes with the business of Gaussian, Inc. or will provide
 assistance to any competitor of Gaussian, Inc.  The licensee
 of this program is prohibited from giving any competitor of
 Gaussian, Inc. access to this program.  By using this program,
 the user acknowledges that Gaussian, Inc. is engaged in the
 business of creating and licensing software in the field of
 computational chemistry and represents and warrants to the
 licensee that it is not a competitor of Gaussian, Inc. and that
 it will not use this program in any manner prohibited above.
 ---------------------------------------------------------------
  

 Cite this work as:
 Gaussian 16, Revision C.01,
 M. J. Frisch, G. W. Trucks, H. B. Schlegel, G. E. Scuseria, 
 M. A. Robb, J. R. Cheeseman, G. Scalmani, V. Barone, 
 G. A. Petersson, H. Nakatsuji, X. Li, M. Caricato, A. V. Marenich, 
 J. Bloino, B. G. Janesko, R. Gomperts, B. Mennucci, H. P. Hratchian, 
 J. V. Ortiz, A. F. Izmaylov, J. L. Sonnenberg, D. Williams-Young, 
 F. Ding, F. Lipparini, F. Egidi, J. Goings, B. Peng, A. Petrone, 
 T. Henderson, D. Ranasinghe, V. G. Zakrzewski, J. Gao, N. Rega, 
 G. Zheng, W. Liang, M. Hada, M. Ehara, K. Toyota, R. Fukuda, 
 J. Hasegawa, M. Ishida, T. Nakajima, Y. Honda, O. Kitao, H. Nakai, 
 T. Vreven, K. Throssell, J. A. Montgomery, Jr., J. E. Peralta, 
 F. Ogliaro, M. J. Bearpark, J. J. Heyd, E. N. Brothers, K. N. Kudin, 
 V. N. Staroverov, T. A. Keith, R. Kobayashi, J. Normand, 
 K. Raghavachari, A. P. Rendell, J. C. Burant, S. S. Iyengar, 
 J. Tomasi, M. Cossi, J. M. Millam, M. Klene, C. Adamo, R. Cammi, 
 J. W. Ochterski, R. L. Martin, K. Morokuma, O. Farkas, 
 J. B. Foresman, and D. J. Fox, Gaussian, Inc., Wallingford CT, 2019.
 
 ******************************************
 Gaussian 16:  ES64L-G16RevC.01  3-Jul-2019
                19-Jun-2024 
 ******************************************
 %mem=12000MB
 %nprocshared=8
 Will use up to    8 processors via shared memory.
 %chk=acetate19.chk
 ----------------------------------------------------------------------
 #P HF/aug-cc-pvtz Opt=(Redundant, calcall, verytight) symm=(loose,foll
 ow) Pop=(MK,Hirshfeld,ReadRadii) iop(6/33=2) iop(6/42=6) Polar Freq ma
 xdisk=128GB
 ----------------------------------------------------------------------
 1/7=1,10=4,18=20,19=15,38=1/1,3;
 2/9=110,12=2,17=4,18=3,40=1/2;
 3/5=16,6=1,7=10,11=9,25=1,30=1,71=2,140=1/1,2,3;
 4//1;
 5/5=2,38=5,98=1/2;
 8/6=4,10=90,11=11/1;
 11/6=1,8=1,9=11,15=111,16=1/1,2,10;
 10/6=1/2;
 6/7=2,8=2,9=2,10=2,15=8,18=1,20=101,28=1,33=2,42=6,79=1/1,2;
 7/10=1,25=1/1,2,3,16;
 1/7=1,10=4,18=20,19=15/3(3);
 2/9=110,15=5/2;
 7/8=1,9=1,25=1,44=-1/16;
 99//99;
 2/9=110,15=5/2;
 3/5=16,6=1,7=10,11=9,25=1,30=1,71=2,140=1/1,2,3;
 4/5=5,16=3,69=1/1;
 5/5=2,38=5,98=1/2;
 8/6=4,10=90,11=11/1;
 11/6=1,8=1,9=11,15=111,16=1/1,2,10;
 10/6=1/2;
 7/10=1,25=1/1,2,3,16;
 1/7=1,10=4,18=20,19=15/3(-8);
 2/9=110,15=5/2;
 6/7=2,8=2,9=2,10=2,15=8,18=1,19=2,20=101,28=1,33=2,42=6,79=1/1,2;
 7/8=1,9=1,25=1,44=-1/16;
 99//99;
 Leave Link    1 at Wed Jun 19 08:44:05 2024, MaxMem=  1572864000 cpu:               1.2 elap:               0.2
 (Enter /software/sse/easybuild/prefix/software/Gaussian/16.C.01-avx2-nsc1/g16/l101.exe)
 -------
 acetate
 -------
 Symbolic Z-matrix:
 Charge = -1 Multiplicity = 1
 C                    -1.35514  -0.03667  -0.00054 
 C                     0.22143  -0.0009    0.00003 
 O                     0.7902   -1.11529  -0.01218 
 O                     0.71124   1.15174   0.01273 
 H                    -1.74034  -1.06121  -0.01149 
 H                    -1.73459   0.48818   0.88502 
 H                    -1.73435   0.50685  -0.87486 
 
 ITRead=  0  0  0  0  0  0  0
 MicOpt= -1 -1 -1 -1 -1 -1 -1
 NAtoms=      7 NQM=        7 NQMF=       0 NMMI=      0 NMMIF=      0
                NMic=       0 NMicF=      0.
                    Isotopes and Nuclear Properties:
 (Nuclear quadrupole moments (NQMom) in fm**2, nuclear magnetic moments (NMagM)
  in nuclear magnetons)

  Atom         1           2           3           4           5           6           7
 IAtWgt=          12          12          16          16           1           1           1
 AtmWgt=  12.0000000  12.0000000  15.9949146  15.9949146   1.0078250   1.0078250   1.0078250
 NucSpn=           0           0           0           0           1           1           1
 AtZEff=  -0.0000000  -0.0000000  -0.0000000  -0.0000000  -0.0000000  -0.0000000  -0.0000000
 NQMom=    0.0000000   0.0000000   0.0000000   0.0000000   0.0000000   0.0000000   0.0000000
 NMagM=    0.0000000   0.0000000   0.0000000   0.0000000   2.7928460   2.7928460   2.7928460
 AtZNuc=   6.0000000   6.0000000   8.0000000   8.0000000   1.0000000   1.0000000   1.0000000
 Leave Link  101 at Wed Jun 19 08:44:06 2024, MaxMem=  1572864000 cpu:               1.9 elap:               0.3
 (Enter /software/sse/easybuild/prefix/software/Gaussian/16.C.01-avx2-nsc1/g16/l103.exe)

 GradGradGradGradGradGradGradGradGradGradGradGradGradGradGradGradGradGrad
 Berny optimization.
 Initialization pass.
                           ----------------------------
                           !    Initial Parameters    !
                           ! (Angstroms and Degrees)  !
 --------------------------                            --------------------------
 ! Name  Definition              Value          Derivative Info.                !
 --------------------------------------------------------------------------------
 ! R1    R(1,2)                  1.577          calculate D2E/DX2 analytically  !
 ! R2    R(1,5)                  1.0946         calculate D2E/DX2 analytically  !
 ! R3    R(1,6)                  1.0971         calculate D2E/DX2 analytically  !
 ! R4    R(1,7)                  1.0971         calculate D2E/DX2 analytically  !
 ! R5    R(2,3)                  1.2512         calculate D2E/DX2 analytically  !
 ! R6    R(2,4)                  1.2525         calculate D2E/DX2 analytically  !
 ! A1    A(2,1,5)              111.9032         calculate D2E/DX2 analytically  !
 ! A2    A(2,1,6)              109.5504         calculate D2E/DX2 analytically  !
 ! A3    A(2,1,7)              109.5487         calculate D2E/DX2 analytically  !
 ! A4    A(5,1,6)              109.5195         calculate D2E/DX2 analytically  !
 ! A5    A(5,1,7)              109.5173         calculate D2E/DX2 analytically  !
 ! A6    A(6,1,7)              106.6614         calculate D2E/DX2 analytically  !
 ! A7    A(1,2,3)              115.7379         calculate D2E/DX2 analytically  !
 ! A8    A(1,2,4)              114.3211         calculate D2E/DX2 analytically  !
 ! A9    A(3,2,4)              129.941          calculate D2E/DX2 analytically  !
 ! D1    D(5,1,2,3)              0.0208         calculate D2E/DX2 analytically  !
 ! D2    D(5,1,2,4)           -179.9808         calculate D2E/DX2 analytically  !
 ! D3    D(6,1,2,3)            121.6845         calculate D2E/DX2 analytically  !
 ! D4    D(6,1,2,4)            -58.3172         calculate D2E/DX2 analytically  !
 ! D5    D(7,1,2,3)           -121.6388         calculate D2E/DX2 analytically  !
 ! D6    D(7,1,2,4)             58.3596         calculate D2E/DX2 analytically  !
 --------------------------------------------------------------------------------
 Trust Radius=3.00D-01 FncErr=1.00D-07 GrdErr=1.00D-07 EigMax=2.50D+02 EigMin=1.00D-04
 Number of steps in this run=     31 maximum allowed number of steps=    100.
 GradGradGradGradGradGradGradGradGradGradGradGradGradGradGradGradGradGrad

 Leave Link  103 at Wed Jun 19 08:44:06 2024, MaxMem=  1572864000 cpu:               0.1 elap:               0.0
 (Enter /software/sse/easybuild/prefix/software/Gaussian/16.C.01-avx2-nsc1/g16/l202.exe)
                          Input orientation:                          
 ---------------------------------------------------------------------
 Center     Atomic      Atomic             Coordinates (Angstroms)
 Number     Number       Type             X           Y           Z
 ---------------------------------------------------------------------
      1          6           0       -1.355140   -0.036667   -0.000539
      2          6           0        0.221434   -0.000902    0.000025
      3          8           0        0.790199   -1.115292   -0.012178
      4          8           0        0.711240    1.151742    0.012731
      5          1           0       -1.740335   -1.061211   -0.011487
      6          1           0       -1.734589    0.488177    0.885015
      7          1           0       -1.734354    0.506852   -0.874862
 ---------------------------------------------------------------------
                    Distance matrix (angstroms):
                    1          2          3          4          5
     1  C    0.000000
     2  C    1.576980   0.000000
     3  O    2.401259   1.251202   0.000000
     4  O    2.383782   1.252461   2.268545   0.000000
     5  H    1.094617   2.230006   2.531112   3.302721   0.000000
     6  H    1.097109   2.201915   3.122599   2.680164   1.790070
     7  H    1.097113   2.201896   3.122330   2.680417   1.790049
                    6          7
     6  H    0.000000
     7  H    1.759976   0.000000
 Stoichiometry    C2H3O2(1-)
 Framework group  C1[X(C2H3O2)]
 Deg. of freedom    15
 Full point group                 C1      NOp   1
 Largest Abelian subgroup         C1      NOp   1
 Largest concise Abelian subgroup C1      NOp   1
                         Standard orientation:                         
 ---------------------------------------------------------------------
 Center     Atomic      Atomic             Coordinates (Angstroms)
 Number     Number       Type             X           Y           Z
 ---------------------------------------------------------------------
      1          6           0        1.354656   -0.051547   -0.000006
      2          6           0       -0.221431    0.001529   -0.000012
      3          8           0       -0.802397   -1.106616    0.000003
      4          8           0       -0.698551    1.159552    0.000002
      5          1           0        1.728578   -1.080317   -0.000359
      6          1           0        1.739859    0.478801   -0.879778
      7          1           0        1.739800    0.478133    0.880198
 ---------------------------------------------------------------------
 Rotational constants (GHZ):          11.4037474           9.9206785           5.4850731
 Leave Link  202 at Wed Jun 19 08:44:07 2024, MaxMem=  1572864000 cpu:               0.0 elap:               0.0
 (Enter /software/sse/easybuild/prefix/software/Gaussian/16.C.01-avx2-nsc1/g16/l301.exe)
 Standard basis: Aug-CC-pVTZ (5D, 7F)
 Ernie: Thresh=  0.10000D-02 Tol=  0.10000D-05 Strict=F.
 Ernie:  12 primitive shells out of 153 were deleted.
 There are   295 symmetry adapted cartesian basis functions of A   symmetry.
 There are   253 symmetry adapted basis functions of A   symmetry.
   253 basis functions,   369 primitive gaussians,   295 cartesian basis functions
    16 alpha electrons       16 beta electrons
       nuclear repulsion energy       111.5374310205 Hartrees.
 IExCor=    0 DFT=F Ex=HF Corr=None ExCW=0 ScaHFX=  1.000000
 ScaDFX=  1.000000  1.000000  1.000000  1.000000 ScalE2=  1.000000  1.000000
 IRadAn=      5 IRanWt=     -1 IRanGd=            0 ICorTp=0 IEmpDi=  4
 NAtoms=    7 NActive=    7 NUniq=    7 SFac= 1.00D+00 NAtFMM=   60 NAOKFM=F Big=F
 Integral buffers will be    131072 words long.
 Raffenetti 1 integral format.
 Two-electron integral symmetry is turned on.
 Leave Link  301 at Wed Jun 19 08:44:07 2024, MaxMem=  1572864000 cpu:               0.4 elap:               0.1
 (Enter /software/sse/easybuild/prefix/software/Gaussian/16.C.01-avx2-nsc1/g16/l302.exe)
 NPDir=0 NMtPBC=     1 NCelOv=     1 NCel=       1 NClECP=     1 NCelD=      1
         NCelK=      1 NCelE2=     1 NClLst=     1 CellRange=     0.0.
 One-electron integrals computed using PRISM.
 One-electron integral symmetry used in STVInt
 NBasis=   253 RedAO= T EigKep=  3.73D-05  NBF=   253
 NBsUse=   253 1.00D-06 EigRej= -1.00D+00 NBFU=   253
 Leave Link  302 at Wed Jun 19 08:44:08 2024, MaxMem=  1572864000 cpu:               1.0 elap:               0.1
 (Enter /software/sse/easybuild/prefix/software/Gaussian/16.C.01-avx2-nsc1/g16/l303.exe)
 DipDrv:  MaxL=1.
 Leave Link  303 at Wed Jun 19 08:44:08 2024, MaxMem=  1572864000 cpu:               0.2 elap:               0.0
 (Enter /software/sse/easybuild/prefix/software/Gaussian/16.C.01-avx2-nsc1/g16/l401.exe)
 ExpMin= 2.53D-02 ExpMax= 1.53D+04 ExpMxC= 5.22D+02 IAcc=3 IRadAn=         5 AccDes= 0.00D+00
 Harris functional with IExCor=  205 and IRadAn=       5 diagonalized for initial guess.
 HarFok:  IExCor=  205 AccDes= 0.00D+00 IRadAn=         5 IDoV= 1 UseB2=F ITyADJ=14
 ICtDFT=  3500011 ScaDFX=  1.000000  1.000000  1.000000  1.000000
 FoFCou: FMM=F IPFlag=           0 FMFlag=      100000 FMFlg1=           0
         NFxFlg=           0 DoJE=T BraDBF=F KetDBF=T FulRan=T
         wScrn=  0.000000 ICntrl=       500 IOpCl=  0 I1Cent=   200000004 NGrid=           0
         NMat0=    1 NMatS0=      1 NMatT0=    0 NMatD0=    1 NMtDS0=    0 NMtDT0=    0
 Petite list used in FoFCou.
 Harris En= -227.752905037367    
 JPrj=0 DoOrth=F DoCkMO=F.
 Leave Link  401 at Wed Jun 19 08:44:09 2024, MaxMem=  1572864000 cpu:               2.6 elap:               0.4
 (Enter /software/sse/easybuild/prefix/software/Gaussian/16.C.01-avx2-nsc1/g16/l502.exe)
 Keep R1 ints in memory in canonical form, NReq=529185064.
 FoFCou: FMM=F IPFlag=           0 FMFlag=           0 FMFlg1=           0
         NFxFlg=           0 DoJE=F BraDBF=F KetDBF=F FulRan=T
         wScrn=  0.000000 ICntrl=       600 IOpCl=  0 I1Cent=           0 NGrid=           0
         NMat0=    1 NMatS0=  32131 NMatT0=    0 NMatD0=    1 NMtDS0=    0 NMtDT0=    0
 Symmetry not used in FoFCou.
 Two-electron integral symmetry not used.
 Closed shell SCF:
 Using DIIS extrapolation, IDIIS=  1040.
 NGot=  1572864000 LenX=  1056468294 LenY=  1056380828
 Requested convergence on RMS density matrix=1.00D-08 within 128 cycles.
 Requested convergence on MAX density matrix=1.00D-06.
 Requested convergence on             energy=1.00D-06.
 No special actions if energy rises.

 Cycle   1  Pass 1  IDiag  1:
 E= -227.050724551973    
 DIIS: error= 3.65D-02 at cycle   1 NSaved=   1.
 NSaved= 1 IEnMin= 1 EnMin= -227.050724551973     IErMin= 1 ErrMin= 3.65D-02
 ErrMax= 3.65D-02  0.00D+00 EMaxC= 1.00D-01 BMatC= 5.55D-01 BMatP= 5.55D-01
 IDIUse=3 WtCom= 6.35D-01 WtEn= 3.65D-01
 Coeff-Com:  0.100D+01
 Coeff-En:   0.100D+01
 Coeff:      0.100D+01
 Gap=     0.572 Goal=   None    Shift=    0.000
 GapD=    0.572 DampG=2.000 DampE=0.500 DampFc=1.0000 IDamp=-1.
 RMSDP=2.20D-03 MaxDP=6.33D-02              OVMax= 1.59D-01

 Cycle   2  Pass 1  IDiag  1:
 E= -227.262697045836     Delta-E=       -0.211972493863 Rises=F Damp=F
 DIIS: error= 1.81D-02 at cycle   2 NSaved=   2.
 NSaved= 2 IEnMin= 2 EnMin= -227.262697045836     IErMin= 2 ErrMin= 1.81D-02
 ErrMax= 1.81D-02  0.00D+00 EMaxC= 1.00D-01 BMatC= 9.89D-02 BMatP= 5.55D-01
 IDIUse=3 WtCom= 8.19D-01 WtEn= 1.81D-01
 Coeff-Com:  0.248D+00 0.752D+00
 Coeff-En:   0.000D+00 0.100D+01
 Coeff:      0.203D+00 0.797D+00
 Gap=     0.350 Goal=   None    Shift=    0.000
 RMSDP=1.08D-03 MaxDP=3.29D-02 DE=-2.12D-01 OVMax= 7.21D-02

 Cycle   3  Pass 1  IDiag  1:
 E= -227.322677338359     Delta-E=       -0.059980292523 Rises=F Damp=F
 DIIS: error= 6.30D-03 at cycle   3 NSaved=   3.
 NSaved= 3 IEnMin= 3 EnMin= -227.322677338359     IErMin= 3 ErrMin= 6.30D-03
 ErrMax= 6.30D-03  0.00D+00 EMaxC= 1.00D-01 BMatC= 9.63D-03 BMatP= 9.89D-02
 IDIUse=3 WtCom= 9.37D-01 WtEn= 6.30D-02
 Coeff-Com: -0.183D-01 0.210D+00 0.809D+00
 Coeff-En:   0.000D+00 0.000D+00 0.100D+01
 Coeff:     -0.171D-01 0.196D+00 0.821D+00
 Gap=     0.325 Goal=   None    Shift=    0.000
 RMSDP=1.97D-04 MaxDP=6.34D-03 DE=-6.00D-02 OVMax= 1.78D-02

 Cycle   4  Pass 1  IDiag  1:
 E= -227.328284357329     Delta-E=       -0.005607018970 Rises=F Damp=F
 DIIS: error= 1.59D-03 at cycle   4 NSaved=   4.
 NSaved= 4 IEnMin= 4 EnMin= -227.328284357329     IErMin= 4 ErrMin= 1.59D-03
 ErrMax= 1.59D-03  0.00D+00 EMaxC= 1.00D-01 BMatC= 3.32D-04 BMatP= 9.63D-03
 IDIUse=3 WtCom= 9.84D-01 WtEn= 1.59D-02
 Coeff-Com: -0.106D-01 0.397D-01 0.246D+00 0.725D+00
 Coeff-En:   0.000D+00 0.000D+00 0.000D+00 0.100D+01
 Coeff:     -0.104D-01 0.391D-01 0.242D+00 0.729D+00
 Gap=     0.323 Goal=   None    Shift=    0.000
 RMSDP=5.32D-05 MaxDP=1.65D-03 DE=-5.61D-03 OVMax= 5.23D-03

 Cycle   5  Pass 1  IDiag  1:
 E= -227.328595280171     Delta-E=       -0.000310922841 Rises=F Damp=F
 DIIS: error= 3.24D-04 at cycle   5 NSaved=   5.
 NSaved= 5 IEnMin= 5 EnMin= -227.328595280171     IErMin= 5 ErrMin= 3.24D-04
 ErrMax= 3.24D-04  0.00D+00 EMaxC= 1.00D-01 BMatC= 1.63D-05 BMatP= 3.32D-04
 IDIUse=3 WtCom= 9.97D-01 WtEn= 3.24D-03
 Coeff-Com:  0.298D-02-0.219D-01-0.112D+00-0.811D-01 0.121D+01
 Coeff-En:   0.000D+00 0.000D+00 0.000D+00 0.000D+00 0.100D+01
 Coeff:      0.297D-02-0.218D-01-0.111D+00-0.808D-01 0.121D+01
 Gap=     0.322 Goal=   None    Shift=    0.000
 RMSDP=3.86D-05 MaxDP=1.56D-03 DE=-3.11D-04 OVMax= 2.79D-03

 Cycle   6  Pass 1  IDiag  1:
 E= -227.328624388674     Delta-E=       -0.000029108503 Rises=F Damp=F
 DIIS: error= 5.90D-05 at cycle   6 NSaved=   6.
 NSaved= 6 IEnMin= 6 EnMin= -227.328624388674     IErMin= 6 ErrMin= 5.90D-05
 ErrMax= 5.90D-05  0.00D+00 EMaxC= 1.00D-01 BMatC= 4.81D-07 BMatP= 1.63D-05
 IDIUse=1 WtCom= 1.00D+00 WtEn= 0.00D+00
 Coeff-Com:  0.467D-03-0.168D-02-0.796D-02-0.272D-01-0.597D-01 0.110D+01
 Coeff:      0.467D-03-0.168D-02-0.796D-02-0.272D-01-0.597D-01 0.110D+01
 Gap=     0.322 Goal=   None    Shift=    0.000
 RMSDP=6.49D-06 MaxDP=2.54D-04 DE=-2.91D-05 OVMax= 6.72D-04

 Cycle   7  Pass 1  IDiag  1:
 E= -227.328625649426     Delta-E=       -0.000001260751 Rises=F Damp=F
 DIIS: error= 1.60D-05 at cycle   7 NSaved=   7.
 NSaved= 7 IEnMin= 7 EnMin= -227.328625649426     IErMin= 7 ErrMin= 1.60D-05
 ErrMax= 1.60D-05  0.00D+00 EMaxC= 1.00D-01 BMatC= 4.89D-08 BMatP= 4.81D-07
 IDIUse=1 WtCom= 1.00D+00 WtEn= 0.00D+00
 Coeff-Com: -0.195D-03 0.154D-02 0.799D-02 0.433D-02-0.101D+00 0.120D+00
 Coeff-Com:  0.967D+00
 Coeff:     -0.195D-03 0.154D-02 0.799D-02 0.433D-02-0.101D+00 0.120D+00
 Coeff:      0.967D+00
 Gap=     0.322 Goal=   None    Shift=    0.000
 RMSDP=1.42D-06 MaxDP=3.75D-05 DE=-1.26D-06 OVMax= 1.70D-04

 Cycle   8  Pass 1  IDiag  1:
 E= -227.328625738456     Delta-E=       -0.000000089030 Rises=F Damp=F
 DIIS: error= 4.75D-06 at cycle   8 NSaved=   8.
 NSaved= 8 IEnMin= 8 EnMin= -227.328625738456     IErMin= 8 ErrMin= 4.75D-06
 ErrMax= 4.75D-06  0.00D+00 EMaxC= 1.00D-01 BMatC= 4.29D-09 BMatP= 4.89D-08
 IDIUse=1 WtCom= 1.00D+00 WtEn= 0.00D+00
 Coeff-Com: -0.500D-04 0.286D-03 0.111D-02 0.253D-02-0.186D-02-0.801D-01
 Coeff-Com:  0.420D-01 0.104D+01
 Coeff:     -0.500D-04 0.286D-03 0.111D-02 0.253D-02-0.186D-02-0.801D-01
 Coeff:      0.420D-01 0.104D+01
 Gap=     0.322 Goal=   None    Shift=    0.000
 RMSDP=6.04D-07 MaxDP=2.90D-05 DE=-8.90D-08 OVMax= 5.20D-05

 Cycle   9  Pass 1  IDiag  1:
 E= -227.328625747171     Delta-E=       -0.000000008715 Rises=F Damp=F
 DIIS: error= 1.79D-06 at cycle   9 NSaved=   9.
 NSaved= 9 IEnMin= 9 EnMin= -227.328625747171     IErMin= 9 ErrMin= 1.79D-06
 ErrMax= 1.79D-06  0.00D+00 EMaxC= 1.00D-01 BMatC= 8.75D-10 BMatP= 4.29D-09
 IDIUse=1 WtCom= 1.00D+00 WtEn= 0.00D+00
 Coeff-Com:  0.373D-05-0.578D-04-0.452D-03 0.320D-03 0.870D-02-0.310D-01
 Coeff-Com: -0.927D-01 0.295D+00 0.821D+00
 Coeff:      0.373D-05-0.578D-04-0.452D-03 0.320D-03 0.870D-02-0.310D-01
 Coeff:     -0.927D-01 0.295D+00 0.821D+00
 Gap=     0.322 Goal=   None    Shift=    0.000
 RMSDP=2.10D-07 MaxDP=1.04D-05 DE=-8.72D-09 OVMax= 1.42D-05

 Cycle  10  Pass 1  IDiag  1:
 E= -227.328625748311     Delta-E=       -0.000000001140 Rises=F Damp=F
 DIIS: error= 8.54D-07 at cycle  10 NSaved=  10.
 NSaved=10 IEnMin=10 EnMin= -227.328625748311     IErMin=10 ErrMin= 8.54D-07
 ErrMax= 8.54D-07  0.00D+00 EMaxC= 1.00D-01 BMatC= 9.94D-11 BMatP= 8.75D-10
 IDIUse=1 WtCom= 1.00D+00 WtEn= 0.00D+00
 Coeff-Com:  0.823D-05-0.547D-04-0.255D-03-0.324D-03 0.164D-02 0.938D-02
 Coeff-Com: -0.315D-01-0.978D-01 0.146D+00 0.973D+00
 Coeff:      0.823D-05-0.547D-04-0.255D-03-0.324D-03 0.164D-02 0.938D-02
 Coeff:     -0.315D-01-0.978D-01 0.146D+00 0.973D+00
 Gap=     0.322 Goal=   None    Shift=    0.000
 RMSDP=9.11D-08 MaxDP=4.18D-06 DE=-1.14D-09 OVMax= 8.60D-06

 Cycle  11  Pass 1  IDiag  1:
 E= -227.328625748539     Delta-E=       -0.000000000228 Rises=F Damp=F
 DIIS: error= 2.27D-07 at cycle  11 NSaved=  11.
 NSaved=11 IEnMin=11 EnMin= -227.328625748539     IErMin=11 ErrMin= 2.27D-07
 ErrMax= 2.27D-07  0.00D+00 EMaxC= 1.00D-01 BMatC= 1.26D-11 BMatP= 9.94D-11
 IDIUse=1 WtCom= 1.00D+00 WtEn= 0.00D+00
 Coeff-Com: -0.103D-05 0.115D-04 0.776D-04 0.983D-05-0.121D-02 0.276D-02
 Coeff-Com:  0.125D-01-0.146D-01-0.154D+00-0.119D+00 0.127D+01
 Coeff:     -0.103D-05 0.115D-04 0.776D-04 0.983D-05-0.121D-02 0.276D-02
 Coeff:      0.125D-01-0.146D-01-0.154D+00-0.119D+00 0.127D+01
 Gap=     0.322 Goal=   None    Shift=    0.000
 RMSDP=3.13D-08 MaxDP=9.56D-07 DE=-2.28D-10 OVMax= 4.03D-06

 Cycle  12  Pass 1  IDiag  1:
 E= -227.328625748577     Delta-E=       -0.000000000038 Rises=F Damp=F
 DIIS: error= 7.41D-08 at cycle  12 NSaved=  12.
 NSaved=12 IEnMin=12 EnMin= -227.328625748577     IErMin=12 ErrMin= 7.41D-08
 ErrMax= 7.41D-08  0.00D+00 EMaxC= 1.00D-01 BMatC= 1.04D-12 BMatP= 1.26D-11
 IDIUse=1 WtCom= 1.00D+00 WtEn= 0.00D+00
 Coeff-Com: -0.485D-06 0.180D-05-0.177D-05 0.344D-04 0.283D-03-0.223D-02
 Coeff-Com: -0.623D-03 0.176D-01 0.282D-01-0.248D-01-0.474D+00 0.146D+01
 Coeff:     -0.485D-06 0.180D-05-0.177D-05 0.344D-04 0.283D-03-0.223D-02
 Coeff:     -0.623D-03 0.176D-01 0.282D-01-0.248D-01-0.474D+00 0.146D+01
 Gap=     0.322 Goal=   None    Shift=    0.000
 RMSDP=1.29D-08 MaxDP=5.11D-07 DE=-3.84D-11 OVMax= 1.52D-06

 Cycle  13  Pass 1  IDiag  1:
 E= -227.328625748581     Delta-E=       -0.000000000004 Rises=F Damp=F
 DIIS: error= 1.87D-08 at cycle  13 NSaved=  13.
 NSaved=13 IEnMin=13 EnMin= -227.328625748581     IErMin=13 ErrMin= 1.87D-08
 ErrMax= 1.87D-08  0.00D+00 EMaxC= 1.00D-01 BMatC= 6.72D-14 BMatP= 1.04D-12
 IDIUse=1 WtCom= 1.00D+00 WtEn= 0.00D+00
 Coeff-Com:  0.179D-06-0.120D-05-0.307D-05-0.113D-04-0.220D-04 0.541D-03
 Coeff-Com: -0.393D-03-0.420D-02-0.389D-02 0.166D-01 0.841D-01-0.524D+00
 Coeff-Com:  0.143D+01
 Coeff:      0.179D-06-0.120D-05-0.307D-05-0.113D-04-0.220D-04 0.541D-03
 Coeff:     -0.393D-03-0.420D-02-0.389D-02 0.166D-01 0.841D-01-0.524D+00
 Coeff:      0.143D+01
 Gap=     0.322 Goal=   None    Shift=    0.000
 RMSDP=3.61D-09 MaxDP=1.33D-07 DE=-3.92D-12 OVMax= 3.90D-07

 SCF Done:  E(RHF) =  -227.328625749     A.U. after   13 cycles
            NFock= 13  Conv=0.36D-08     -V/T= 2.0016
 KE= 2.269571561779D+02 PE=-7.671507836310D+02 EE= 2.013275706841D+02
 Leave Link  502 at Wed Jun 19 08:44:21 2024, MaxMem=  1572864000 cpu:              36.7 elap:              11.5
 (Enter /software/sse/easybuild/prefix/software/Gaussian/16.C.01-avx2-nsc1/g16/l801.exe)
 Range of M.O.s used for correlation:     1   253
 NBasis=   253 NAE=    16 NBE=    16 NFC=     0 NFV=     0
 NROrb=    253 NOA=    16 NOB=    16 NVA=   237 NVB=   237

 **** Warning!!: The largest alpha MO coefficient is  0.40809823D+02

 Leave Link  801 at Wed Jun 19 08:44:21 2024, MaxMem=  1572864000 cpu:               0.2 elap:               0.0
 (Enter /software/sse/easybuild/prefix/software/Gaussian/16.C.01-avx2-nsc1/g16/l1101.exe)
 Using compressed storage, NAtomX=     7.
 Will process      8 centers per pass.
 Leave Link 1101 at Wed Jun 19 08:44:21 2024, MaxMem=  1572864000 cpu:               1.2 elap:               0.2
 (Enter /software/sse/easybuild/prefix/software/Gaussian/16.C.01-avx2-nsc1/g16/l1102.exe)
 Symmetrizing basis deriv contribution to polar:
 IMax=3 JMax=2 DiffMx= 0.00D+00
 Leave Link 1102 at Wed Jun 19 08:44:21 2024, MaxMem=  1572864000 cpu:               0.2 elap:               0.1
 (Enter /software/sse/easybuild/prefix/software/Gaussian/16.C.01-avx2-nsc1/g16/l1110.exe)
 Forming Gx(P) for the SCF density, NAtomX=     7.
 Integral derivatives from FoFJK, PRISM(SPDF).
 Do as many integral derivatives as possible in FoFJK.
 G2DrvN: MDV=    1572863143.
 G2DrvN: will do     8 centers at a time, making    1 passes.
 Calling FoFCou, ICntrl=  3107 FMM=F I1Cent=   0 AccDes= 0.00D+00.
 FoFJK:  IHMeth= 1 ICntrl=    3107 DoSepK=F KAlg= 0 I1Cent=           0 FoldK=F
 IRaf=         0 NMat=       1 IRICut=       1 DoRegI=T DoRafI=F ISym2E= 0 IDoP0=0 IntGTp=1.
 FoFCou: FMM=F IPFlag=           0 FMFlag=      100000 FMFlg1=           0
         NFxFlg=           0 DoJE=F BraDBF=F KetDBF=F FulRan=T
         wScrn=  0.000000 ICntrl=      3107 IOpCl=  0 I1Cent=           0 NGrid=           0
         NMat0=    1 NMatS0=      1 NMatT0=    0 NMatD0=    1 NMtDS0=    0 NMtDT0=    0
 Symmetry not used in FoFCou.
 End of G2Drv F.D. properties file   721 does not exist.
 End of G2Drv F.D. properties file   722 does not exist.
 End of G2Drv F.D. properties file   788 does not exist.
 Leave Link 1110 at Wed Jun 19 08:44:37 2024, MaxMem=  1572864000 cpu:             120.6 elap:              15.2
 (Enter /software/sse/easybuild/prefix/software/Gaussian/16.C.01-avx2-nsc1/g16/l1002.exe)
 Minotr:  Closed shell wavefunction.
          IDoAtm=1111111
          Direct CPHF calculation.
          Differentiating once with respect to electric field.
                with respect to dipole field.
          Differentiating once with respect to nuclear coordinates.
          Requested convergence is 1.0D-08 RMS, and 1.0D-07 maximum.
          Secondary convergence is 1.0D-12 RMS, and 1.0D-12 maximum.
          NewPWx=T KeepS1=F KeepF1=F KeepIn=T MapXYZ=F SortEE=F KeepMc=T.
 Keep R1 ints in memory in canonical form, NReq=529186615.
 FoFCou: FMM=F IPFlag=           0 FMFlag=           0 FMFlg1=           0
         NFxFlg=           0 DoJE=F BraDBF=F KetDBF=F FulRan=T
         wScrn=  0.000000 ICntrl=       600 IOpCl=  0 I1Cent=           0 NGrid=           0
         NMat0=    1 NMatS0=  32131 NMatT0=    0 NMatD0=    1 NMtDS0=    0 NMtDT0=    0
 Symmetry not used in FoFCou.
 Two-electron integral symmetry not used.
          MDV=    1572864000 using IRadAn=       1.
          Solving linear equations simultaneously, MaxMat=       0.
          There are    24 degrees of freedom in the 1st order CPHF.  IDoFFX=6 NUNeed=     3.
     21 vectors produced by pass  0 Test12= 1.58D-14 4.17D-09 XBig12= 1.18D+01 1.13D+00.
 AX will form    21 AO Fock derivatives at one time.
     21 vectors produced by pass  1 Test12= 1.58D-14 4.17D-09 XBig12= 1.18D+00 1.93D-01.
     21 vectors produced by pass  2 Test12= 1.58D-14 4.17D-09 XBig12= 3.92D-02 3.72D-02.
     21 vectors produced by pass  3 Test12= 1.58D-14 4.17D-09 XBig12= 9.80D-04 4.88D-03.
     21 vectors produced by pass  4 Test12= 1.58D-14 4.17D-09 XBig12= 1.88D-05 7.91D-04.
     21 vectors produced by pass  5 Test12= 1.58D-14 4.17D-09 XBig12= 2.24D-07 8.01D-05.
     21 vectors produced by pass  6 Test12= 1.58D-14 4.17D-09 XBig12= 2.04D-09 7.21D-06.
     12 vectors produced by pass  7 Test12= 1.58D-14 4.17D-09 XBig12= 1.60D-11 7.38D-07.
      4 vectors produced by pass  8 Test12= 1.58D-14 4.17D-09 XBig12= 1.06D-13 5.20D-08.
 InvSVY:  IOpt=1 It=  1 EMax= 1.78D-15
 Solved reduced A of dimension   163 with    24 vectors.
 FullF1:  Do perturbations      1 to       3.
 Isotropic polarizability for W=    0.000000       38.85 Bohr**3.
 End of Minotr F.D. properties file   721 does not exist.
 End of Minotr F.D. properties file   722 does not exist.
 End of Minotr F.D. properties file   788 does not exist.
 Leave Link 1002 at Wed Jun 19 08:44:49 2024, MaxMem=  1572864000 cpu:              98.5 elap:              12.4
 (Enter /software/sse/easybuild/prefix/software/Gaussian/16.C.01-avx2-nsc1/g16/l601.exe)
 Copying SCF densities to generalized density rwf, IOpCl= 0 IROHF=0.
 SCF density gives NOpUse=  1 NOpAll=  1.

 **********************************************************************

            Population analysis using the SCF Density.

 **********************************************************************

 Orbital symmetries:
 BldTbl:  Degeneracy threshold= 1.00D-02
       Occupied  (A) (A) (A) (A) (A) (A) (A) (A) (A) (A) (A) (A)
                 (A) (A) (A) (A)
       Virtual   (A) (A) (A) (A) (A) (A) (A) (A) (A) (A) (A) (A)
                 (A) (A) (A) (A) (A) (A) (A) (A) (A) (A) (A) (A)
                 (A) (A) (A) (A) (A) (A) (A) (A) (A) (A) (A) (A)
                 (A) (A) (A) (A) (A) (A) (A) (A) (A) (A) (A) (A)
                 (A) (A) (A) (A) (A) (A) (A) (A) (A) (A) (A) (A)
                 (A) (A) (A) (A) (A) (A) (A) (A) (A) (A) (A) (A)
                 (A) (A) (A) (A) (A) (A) (A) (A) (A) (A) (A) (A)
                 (A) (A) (A) (A) (A) (A) (A) (A) (A) (A) (A) (A)
                 (A) (A) (A) (A) (A) (A) (A) (A) (A) (A) (A) (A)
                 (A) (A) (A) (A) (A) (A) (A) (A) (A) (A) (A) (A)
                 (A) (A) (A) (A) (A) (A) (A) (A) (A) (A) (A) (A)
                 (A) (A) (A) (A) (A) (A) (A) (A) (A) (A) (A) (A)
                 (A) (A) (A) (A) (A) (A) (A) (A) (A) (A) (A) (A)
                 (A) (A) (A) (A) (A) (A) (A) (A) (A) (A) (A) (A)
                 (A) (A) (A) (A) (A) (A) (A) (A) (A) (A) (A) (A)
                 (A) (A) (A) (A) (A) (A) (A) (A) (A) (A) (A) (A)
                 (A) (A) (A) (A) (A) (A) (A) (A) (A) (A) (A) (A)
                 (A) (A) (A) (A) (A) (A) (A) (A) (A) (A) (A) (A)
                 (A) (A) (A) (A) (A) (A) (A) (A) (A) (A) (A) (A)
                 (A) (A) (A) (A) (A) (A) (A) (A) (A)
 The electronic state is 1-A.
 Alpha  occ. eigenvalues --  -20.28839 -20.28585 -11.13229 -11.04512  -1.16322
 Alpha  occ. eigenvalues --   -1.06484  -0.78383  -0.50842  -0.41377  -0.41309
 Alpha  occ. eigenvalues --   -0.40628  -0.36128  -0.31895  -0.20462  -0.19017
 Alpha  occ. eigenvalues --   -0.18912
 Alpha virt. eigenvalues --    0.13306   0.14427   0.14475   0.18563   0.22089
 Alpha virt. eigenvalues --    0.22908   0.23015   0.24992   0.25138   0.26728
 Alpha virt. eigenvalues --    0.30726   0.32940   0.33195   0.35814   0.36241
 Alpha virt. eigenvalues --    0.36673   0.38428   0.39420   0.41350   0.42497
 Alpha virt. eigenvalues --    0.43068   0.45908   0.46642   0.48987   0.49397
 Alpha virt. eigenvalues --    0.49483   0.50177   0.51829   0.53058   0.54997
 Alpha virt. eigenvalues --    0.56563   0.58196   0.58936   0.59493   0.60495
 Alpha virt. eigenvalues --    0.61358   0.64128   0.68400   0.68603   0.68870
 Alpha virt. eigenvalues --    0.72388   0.73424   0.76162   0.78554   0.83180
 Alpha virt. eigenvalues --    0.86629   0.90926   0.92161   0.93089   0.94199
 Alpha virt. eigenvalues --    0.95301   0.97536   0.97712   1.01997   1.02985
 Alpha virt. eigenvalues --    1.03544   1.04001   1.05981   1.07057   1.07112
 Alpha virt. eigenvalues --    1.10592   1.11467   1.11689   1.12538   1.15683
 Alpha virt. eigenvalues --    1.16616   1.17916   1.18934   1.22032   1.22102
 Alpha virt. eigenvalues --    1.25009   1.27326   1.27654   1.27932   1.28946
 Alpha virt. eigenvalues --    1.30424   1.34685   1.36102   1.36999   1.37902
 Alpha virt. eigenvalues --    1.41486   1.41775   1.43659   1.45150   1.51561
 Alpha virt. eigenvalues --    1.56382   1.60279   1.60340   1.61095   1.65648
 Alpha virt. eigenvalues --    1.66662   1.70816   1.72825   1.74135   1.77484
 Alpha virt. eigenvalues --    1.78595   1.79760   1.83172   1.84309   1.85400
 Alpha virt. eigenvalues --    1.87255   1.93681   1.94172   1.96374   2.00269
 Alpha virt. eigenvalues --    2.01434   2.03435   2.07433   2.13066   2.14174
 Alpha virt. eigenvalues --    2.14235   2.25120   2.25880   2.28869   2.29094
 Alpha virt. eigenvalues --    2.33499   2.38477   2.39079   2.45855   2.49268
 Alpha virt. eigenvalues --    2.51399   2.56065   2.60059   2.66865   2.68887
 Alpha virt. eigenvalues --    2.70132   2.75243   2.76027   2.78555   2.79797
 Alpha virt. eigenvalues --    2.81690   2.83540   2.88073   2.94580   2.96230
 Alpha virt. eigenvalues --    2.99748   3.01053   3.06897   3.11913   3.18206
 Alpha virt. eigenvalues --    3.18437   3.21829   3.23387   3.26052   3.33773
 Alpha virt. eigenvalues --    3.39796   3.47290   3.56648   3.59177   3.63770
 Alpha virt. eigenvalues --    3.67634   3.70912   3.72887   3.76626   3.79874
 Alpha virt. eigenvalues --    3.84027   3.86656   3.92557   3.95965   3.99476
 Alpha virt. eigenvalues --    4.04735   4.07801   4.12137   4.14017   4.14847
 Alpha virt. eigenvalues --    4.23476   4.23781   4.26016   4.30828   4.32660
 Alpha virt. eigenvalues --    4.32885   4.38949   4.46774   4.47196   4.50972
 Alpha virt. eigenvalues --    4.55892   4.57856   4.65589   4.72108   4.77245
 Alpha virt. eigenvalues --    4.81840   4.81930   4.96329   4.96577   4.97984
 Alpha virt. eigenvalues --    5.04419   5.08863   5.13691   5.19086   5.21861
 Alpha virt. eigenvalues --    5.23509   5.31124   5.41475   5.46009   5.50278
 Alpha virt. eigenvalues --    5.51280   5.59412   5.76527   5.80222   5.83420
 Alpha virt. eigenvalues --    5.85997   6.05611   6.14798   6.26608   6.28496
 Alpha virt. eigenvalues --    6.30267   6.57095   6.81955   6.86500   6.88358
 Alpha virt. eigenvalues --    6.90353   6.95276   6.95477   7.11580   7.13164
 Alpha virt. eigenvalues --    7.15795   7.24244   7.29171   7.35779   7.43494
 Alpha virt. eigenvalues --    7.51117   7.53966   7.56553   7.59558   7.69925
 Alpha virt. eigenvalues --    7.78446   7.85378   7.91534   7.91618   8.03353
 Alpha virt. eigenvalues --    8.08828   8.14237   8.23170  14.47561  15.25504
 Alpha virt. eigenvalues --   16.93523  18.43675
          Condensed to atoms (all electrons):
               1          2          3          4          5          6
     1  C    5.543535   0.183408  -0.105454  -0.130872   0.385177   0.396741
     2  C    0.183408   4.550584   0.396841   0.418732  -0.012788  -0.000440
     3  O   -0.105454   0.396841   8.580560  -0.119744   0.014969  -0.002310
     4  O   -0.130872   0.418732  -0.119744   8.585713  -0.003178   0.015771
     5  H    0.385177  -0.012788   0.014969  -0.003178   0.320029   0.005956
     6  H    0.396741  -0.000440  -0.002310   0.015771   0.005956   0.337453
     7  H    0.396721  -0.000426  -0.002297   0.015776   0.005958   0.013786
               7
     1  C    0.396721
     2  C   -0.000426
     3  O   -0.002297
     4  O    0.015776
     5  H    0.005958
     6  H    0.013786
     7  H    0.337471
 Mulliken charges:
               1
     1  C   -0.669255
     2  C    0.464089
     3  O   -0.762565
     4  O   -0.782198
     5  H    0.283876
     6  H    0.233043
     7  H    0.233010
 Sum of Mulliken charges =  -1.00000
 Mulliken charges with hydrogens summed into heavy atoms:
               1
     1  C    0.080675
     2  C    0.464089
     3  O   -0.762565
     4  O   -0.782198
 APT charges:
               1
     1  C    0.019903
     2  C    1.485485
     3  O   -1.151337
     4  O   -1.155929
     5  H   -0.069466
     6  H   -0.064328
     7  H   -0.064328
 Sum of APT charges =  -1.00000
 APT charges with hydrogens summed into heavy atoms:
               1
     1  C   -0.178219
     2  C    1.485485
     3  O   -1.151337
     4  O   -1.155929
 DipInt: DoE/N= T F RetVal/Mat= T F Init=T NMatP=  1 IDeriv=0 Min/MaxMlt=  0  4
 Entering OneElI...
 OneElI was handed  1572639677 working-precision words.
 Multipole integrals L=0 to 4 MinM= 0 MaxM= 0.
 Requested accuracy = 0.1000D-12
 ShPair: Thresh= 1.00D-13 NBox=     0 BxSize= 0.00D+00 RnKept= 6.24D+00
         NSMCal=                 3486 NSMKep=                3482
 PrmmSu-InSpLW:  IPartL=    0 NPrtUS=    1 NPrtUL=    1 DoSpLW=F IThBeg=    0 IThEnd=    0 NThAct=    1.
 PrSmSu:  IncTry=   512 NBBP=           3482 NTPThr=   100 NPartT=    1 Incr=          34 LDynOK=F GPUOK=F.
 PrsmSu:  NPrtUS=   1 ThrOK=F IAlg=2 LenDen=           0 ISkipM=0 DoSpLW=F IThBeg=    0 IThEnd=    0.
 Prism:   IPart=     0 DynPar=F LinDyn=F Incr=          34.
 PRISM was handed  1572377296 working-precision words and  3482 shell-pairs
 IPart=  0 NShTot=        3482 NBatch=          69 AvBLen=        50.5
 PrsmSu-ThDecC:  IPartSL=    0    0 NPrtUSL=    1    1 IThBeg=    0 IThEnd=    0 CPU=   -1 GPU=   -1 NThAct=    1.
 PrSmSu:  NxtVal=             35.
 Electronic moments (au):
        -32.00000000          1.58167949         -0.06567698         -0.00000905
       -128.95817261       -106.19220242        -24.50409041         -0.12425366
          0.00004979          0.00000258       -165.37312484         -5.76691056
         -0.00594162         93.55531067         14.99879792          0.00013080
        -19.37844478         -4.32109568          0.00480882          0.00010617
      -1208.60894671       -759.15449216       -106.07378722         -0.74219585
          0.00270560         21.01212487         -0.00115003         -0.01873362
          0.00002287       -366.12151298       -157.00905777        -83.09092890
          0.00108245          0.01738440        -13.89010756
 Electronic spatial extent (au):  <R**2>=            259.6545
 DipInt: DoE/N= F T RetVal/Mat= T F Init=T NMatP=  1 IDeriv=0 Min/MaxMlt=  0  4
 Nuclear    moments (au):
         31.00000000          0.00000000          0.00000000         -0.00000000
        104.99379389         79.25681297          5.53071496         -0.00000000
          0.00000000         -0.00000000        159.85688449          3.97374590
          0.00659530        -84.61921593        -13.98028500         -0.00011993
         18.18389167          5.00071225         -0.00561331         -0.00012636
        671.98778916        356.13670311         15.29440490          1.30584496
         -0.00257538        -23.12283910          0.00119318          0.02117829
          0.00016679        209.89205177         59.78502224          4.52150533
         -0.00124479         -0.02020159         16.44134832
 Total      moments (au):
         -1.00000000          1.58167949         -0.06567698         -0.00000905
        -23.96437872        -26.93538945        -18.97337545         -0.12425366
          0.00004979          0.00000258         -5.51624035         -1.79316465
          0.00065367          8.93609474          1.01851292          0.00001088
         -1.19455311          0.67961657         -0.00080448         -0.00002020
       -536.62115755       -403.01778905        -90.77938232          0.56364912
          0.00013021         -2.11071423          0.00004316          0.00244467
          0.00018966       -156.22946121        -97.22403553        -78.56942356
         -0.00016234         -0.00281719          2.55124076
 Charge=             -1.0000 electrons
 Dipole moment (field-independent basis, Debye):
    X=              4.0202    Y=             -0.1669    Z=             -0.0000  Tot=              4.0237
 Quadrupole moment (field-independent basis, Debye-Ang):
   XX=            -32.2329   YY=            -36.2290   ZZ=            -25.5198
   XY=             -0.1671   XZ=              0.0001   YZ=              0.0000
 Traceless Quadrupole moment (field-independent basis, Debye-Ang):
   XX=             -0.9057   YY=             -4.9018   ZZ=              5.8074
   XY=             -0.1671   XZ=              0.0001   YZ=              0.0000
 Octapole moment (field-independent basis, Debye-Ang**2):
  XXX=             -3.9262  YYY=             -1.2763  ZZZ=              0.0005  XYY=              6.3604
  XXY=              0.7249  XXZ=              0.0000  XZZ=             -0.8502  YZZ=              0.4837
  YYZ=             -0.0006  XYZ=             -0.0000
 Hexadecapole moment (field-independent basis, Debye-Ang**3):
 XXXX=           -202.1173 YYYY=           -151.7958 ZZZZ=            -34.1919 XXXY=              0.2123
 XXXZ=              0.0000 YYYX=             -0.7950 YYYZ=              0.0000 ZZZX=              0.0009
 ZZZY=              0.0001 XXYY=            -58.8435 XXZZ=            -36.6192 YYZZ=            -29.5930
 XXYZ=             -0.0001 YYXZ=             -0.0011 ZZXY=              0.9609
 N-N= 1.115374310205D+02 E-N=-7.671507835348D+02  KE= 2.269571561779D+02
 SetAtRh:  ITypeU=  23 NETotI=      -1 ICharg=  0 NETot=      31.
 StAtR1:  I=    1 I1=    1 IA=  6 C=   6.0 OKShel=TTT
                                                  SSP
                                                  222
 StAtR1:  I=    2 I1=    2 IA=  6 C=   6.0 OKShel=TTT
                                                  SSP
                                                  222
 StAtR1:  I=    3 I1=    3 IA=  8 C=   8.0 OKShel=TTT
                                                  SSP
                                                  224
 StAtR1:  I=    4 I1=    4 IA=  8 C=   8.0 OKShel=TTT
                                                  SSP
                                                  224
 StAtR1:  I=    5 I1=    5 IA=  1 C=   1.0 OKShel=T
                                                  S
                                                  1
 StAtR1:  I=    6 I1=    6 IA=  1 C=   1.0 OKShel=T
                                                  S
                                                  1
 StAtR1:  I=    7 I1=    7 IA=  1 C=   1.0 OKShel=T
                                                  S
                                                  1
          I=    1 IA=  6 I1=    1 NAtG=23 NE=   6.000 C=   6.000 Err= 1.75D-11
          I=    2 IA=  6 I1=    2 NAtG=23 NE=   6.000 C=   6.000 Err= 1.75D-11
          I=    3 IA=  8 I1=    3 NAtG=23 NE=   8.000 C=   8.000 Err=-3.68D-11
          I=    4 IA=  8 I1=    4 NAtG=23 NE=   8.000 C=   8.000 Err=-3.68D-11
          I=    5 IA=  1 I1=    5 NAtG=20 NE=   1.000 C=   1.000 Err= 2.80D-12
          I=    6 IA=  1 I1=    6 NAtG=20 NE=   1.000 C=   1.000 Err= 2.80D-12
          I=    7 IA=  1 I1=    7 NAtG=20 NE=   1.000 C=   1.000 Err= 2.80D-12
 Pruned (  99, 590) grid will be used in numerical quadrature.
 Pruned (  99, 590) grid will be used in numerical quadrature.
 IPart=  0 IRanGd=          0 ScrnBf=T ScrnGd=T RCrit=4.00D+00 DoMicB=T.
 Pruned (  99, 590) grid will be used in numerical quadrature.
 IPart=  1 IRanGd=          0 ScrnBf=T ScrnGd=T RCrit=4.00D+00 DoMicB=T.
 IPart=  2 IRanGd=          0 ScrnBf=T ScrnGd=T RCrit=4.00D+00 DoMicB=T.
 Pruned (  99, 590) grid will be used in numerical quadrature.
 CutRad = 1000.00    CtRdIn =    0.00    XCrit =  15.00   ICut = 0
 CutRad = 1000.00    CtRdIn =    0.00    XCrit =  15.00   ICut = 0
 CutRad = 1000.00    CtRdIn =    0.00    XCrit =  15.00   ICut = 0
 IPart=  3 IRanGd=          0 ScrnBf=T ScrnGd=T RCrit=4.00D+00 DoMicB=T.
 CutRad = 1000.00    CtRdIn =    0.00    XCrit =  15.00   ICut = 0
 Pruned (  99, 590) grid will be used in numerical quadrature.
 IPart=  4 IRanGd=          0 ScrnBf=T ScrnGd=T RCrit=4.00D+00 DoMicB=T.
 CutRad = 1000.00    CtRdIn =    0.00    XCrit =  15.00   ICut = 0
 Pruned (  99, 590) grid will be used in numerical quadrature.
 Pruned (  99, 590) grid will be used in numerical quadrature.
 IPart=  0 Atom number   1 atomic number  6 has       23114 grid points.
 Pruned (  99, 590) grid will be used in numerical quadrature.
 IPart=  5 IRanGd=          0 ScrnBf=T ScrnGd=T RCrit=4.00D+00 DoMicB=T.
 CutRad = 1000.00    CtRdIn =    0.00    XCrit =  15.00   ICut = 0
 IPart=  3 Atom number   1 atomic number  6 has       23114 grid points.
 Pruned (  99, 590) grid will be used in numerical quadrature.
 Pruned (  99, 590) grid will be used in numerical quadrature.
 IPart=  7 IRanGd=          0 ScrnBf=T ScrnGd=T RCrit=4.00D+00 DoMicB=T.
 Pruned (  99, 590) grid will be used in numerical quadrature.
 CutRad = 1000.00    CtRdIn =    0.00    XCrit =  15.00   ICut = 0
 IPart=  2 Atom number   1 atomic number  6 has       23114 grid points.
 IPart=  3 Atom   1 batch    2 overlaps    7 atoms,    81 shells and     7 DB shells.   NGrid=      2522
 IPart=  2 Atom   1 batch    1 overlaps    7 atoms,    81 shells and     7 DB shells.   NGrid=      2408
 IPart=  1 Atom number   1 atomic number  6 has       23114 grid points.
 IPart=  0 Atom   1 batch    3 overlaps    7 atoms,    81 shells and     7 DB shells.   NGrid=      2114
 IPart=  1 Atom   1 batch    4 overlaps    7 atoms,    81 shells and     7 DB shells.   NGrid=      1180
 Pruned (  99, 590) grid will be used in numerical quadrature.
 Symmetry reduced   590 angular points to   590 for atom    1.
 Symmetry reduced   194 angular points to   194 for atom    1.
 Symmetry reduced   302 angular points to   302 for atom    1.
 Symmetry reduced    86 angular points to    86 for atom    1.
 Pruned (  99, 590) grid will be used in numerical quadrature.
 IPart=  4 Atom number   1 atomic number  6 has       23114 grid points.
 IPart=  5 Atom number   1 atomic number  6 has       23114 grid points.
 IPart=  4 Atom   1 batch    5 overlaps    7 atoms,    81 shells and     7 DB shells.   NGrid=      1180
 IPart=  5 Atom   1 batch    6 overlaps    7 atoms,    81 shells and     7 DB shells.   NGrid=      1180
 Symmetry reduced   590 angular points to   590 for atom    1.
 Symmetry reduced   590 angular points to   590 for atom    1.
 Pruned (  99, 590) grid will be used in numerical quadrature.
 IPart=  6 IRanGd=          0 ScrnBf=T ScrnGd=T RCrit=4.00D+00 DoMicB=T.
 CutRad = 1000.00    CtRdIn =    0.00    XCrit =  15.00   ICut = 0
 Pruned (  99, 590) grid will be used in numerical quadrature.
 IPart=  7 Atom number   1 atomic number  6 has       23114 grid points.
 IPart=  7 Atom   1 batch    7 overlaps    7 atoms,    83 shells and     7 DB shells.   NGrid=      1180
 Symmetry reduced   590 angular points to   590 for atom    1.
 Pruned (  99, 590) grid will be used in numerical quadrature.
 IPart=  6 Atom number   1 atomic number  6 has       23114 grid points.
 IPart=  6 Atom   1 batch    8 overlaps    7 atoms,    83 shells and     7 DB shells.   NGrid=      1180
 Symmetry reduced   590 angular points to   590 for atom    1.
 IPart=  1 Atom   1 batch    9 overlaps    7 atoms,    83 shells and     7 DB shells.   NGrid=      1180
 IPart=  6 Atom   1 batch   10 overlaps    7 atoms,    83 shells and     7 DB shells.   NGrid=      1180
 IPart=  7 Atom   1 batch   11 overlaps    7 atoms,    82 shells and     7 DB shells.   NGrid=      1180
 IPart=  5 Atom   1 batch   12 overlaps    7 atoms,    82 shells and     7 DB shells.   NGrid=       590
 IPart=  4 Atom   1 batch   13 overlaps    7 atoms,    82 shells and     7 DB shells.   NGrid=       604
 Symmetry reduced   302 angular points to   302 for atom    1.
 IPart=  5 Atom   1 batch   14 overlaps    7 atoms,    82 shells and     7 DB shells.   NGrid=       604
 Symmetry reduced   302 angular points to   302 for atom    1.
 IPart=  4 Atom   1 batch   15 overlaps    7 atoms,    78 shells and     7 DB shells.   NGrid=       604
 IPart=  0 Atom   1 batch   16 overlaps    7 atoms,    69 shells and     7 DB shells.   NGrid=       604
 IPart=  2 Atom   1 batch   17 overlaps    7 atoms,    57 shells and     7 DB shells.   NGrid=       604
 Symmetry reduced   302 angular points to   302 for atom    1.
 IPart=  3 Atom   1 batch   18 overlaps    7 atoms,    44 shells and     7 DB shells.   NGrid=       604
 Symmetry reduced   302 angular points to   302 for atom    1.
 IPart=  2 Atom   1 batch   19 overlaps    7 atoms,    30 shells and     7 DB shells.   NGrid=       604
 IPart=  6 Atom   1 batch   20 overlaps    7 atoms,    20 shells and     1 DB shells.   NGrid=       604
 Symmetry reduced   302 angular points to   302 for atom    1.
 IPart=  1 Atom   1 batch   21 overlaps    7 atoms,    11 shells and     0 DB shells.   NGrid=       604
 Symmetry reduced   302 angular points to   302 for atom    1.
 IPart=  2 Atom   1 batch   22 overlaps    7 atoms,     4 shells and     0 DB shells.   NGrid=       604
 Pruned (  99, 590) grid will be used in numerical quadrature.
 IPart=  7 Atom number   2 atomic number  6 has       23114 grid points.
 IPart=  7 Atom   2 batch    1 overlaps    7 atoms,    83 shells and     7 DB shells.   NGrid=      2408
 Symmetry reduced    86 angular points to    86 for atom    2.
 Pruned (  99, 590) grid will be used in numerical quadrature.
 IPart=  0 Atom number   2 atomic number  6 has       23114 grid points.
 IPart=  0 Atom   2 batch    2 overlaps    7 atoms,    83 shells and     7 DB shells.   NGrid=      2522
 Symmetry reduced   194 angular points to   194 for atom    2.
 Pruned (  99, 590) grid will be used in numerical quadrature.
 IPart=  6 Atom number   2 atomic number  6 has       23114 grid points.
 IPart=  6 Atom   2 batch    3 overlaps    7 atoms,    83 shells and     7 DB shells.   NGrid=      2114
 Symmetry reduced   302 angular points to   302 for atom    2.
 Pruned (  99, 590) grid will be used in numerical quadrature.
 IPart=  4 Atom number   2 atomic number  6 has       23114 grid points.
 IPart=  4 Atom   2 batch    4 overlaps    7 atoms,    83 shells and     7 DB shells.   NGrid=      1180
 Symmetry reduced   590 angular points to   590 for atom    2.
 Pruned (  99, 590) grid will be used in numerical quadrature.
 Pruned (  99, 590) grid will be used in numerical quadrature.
 IPart=  3 Atom number   2 atomic number  6 has       23114 grid points.
 IPart=  2 Atom number   2 atomic number  6 has       23114 grid points.
 IPart=  3 Atom   2 batch    5 overlaps    7 atoms,    83 shells and     7 DB shells.   NGrid=      1180
 IPart=  2 Atom   2 batch    6 overlaps    7 atoms,    83 shells and     7 DB shells.   NGrid=      1180
 Symmetry reduced   590 angular points to   590 for atom    2.
 Symmetry reduced   590 angular points to   590 for atom    2.
 Pruned (  99, 590) grid will be used in numerical quadrature.
 IPart=  1 Atom number   2 atomic number  6 has       23114 grid points.
 IPart=  1 Atom   2 batch    7 overlaps    7 atoms,    83 shells and     7 DB shells.   NGrid=      1180
 Symmetry reduced   590 angular points to   590 for atom    2.
 Pruned (  99, 590) grid will be used in numerical quadrature.
 IPart=  5 Atom number   2 atomic number  6 has       23114 grid points.
 IPart=  5 Atom   2 batch    8 overlaps    7 atoms,    83 shells and     7 DB shells.   NGrid=      1180
 Symmetry reduced   590 angular points to   590 for atom    2.
 IPart=  2 Atom   2 batch    9 overlaps    7 atoms,    83 shells and     7 DB shells.   NGrid=      1180
 IPart=  3 Atom   2 batch   10 overlaps    7 atoms,    83 shells and     7 DB shells.   NGrid=      1180
 IPart=  4 Atom   2 batch   11 overlaps    7 atoms,    82 shells and     7 DB shells.   NGrid=      1180
 IPart=  1 Atom   2 batch   12 overlaps    7 atoms,    82 shells and     7 DB shells.   NGrid=       590
 IPart=  5 Atom   2 batch   13 overlaps    7 atoms,    82 shells and     7 DB shells.   NGrid=       604
 Symmetry reduced   302 angular points to   302 for atom    2.
 IPart=  1 Atom   2 batch   14 overlaps    7 atoms,    80 shells and     7 DB shells.   NGrid=       604
 Symmetry reduced   302 angular points to   302 for atom    2.
 IPart=  5 Atom   2 batch   15 overlaps    7 atoms,    76 shells and     7 DB shells.   NGrid=       604
 IPart=  6 Atom   2 batch   16 overlaps    7 atoms,    67 shells and     7 DB shells.   NGrid=       604
 IPart=  4 Atom   2 batch   17 overlaps    7 atoms,    59 shells and     7 DB shells.   NGrid=       604
 Symmetry reduced   302 angular points to   302 for atom    2.
 IPart=  7 Atom   2 batch   18 overlaps    7 atoms,    43 shells and     7 DB shells.   NGrid=       604
 Symmetry reduced   302 angular points to   302 for atom    2.
 IPart=  3 Atom   2 batch   19 overlaps    7 atoms,    31 shells and     7 DB shells.   NGrid=       604
 Symmetry reduced   302 angular points to   302 for atom    2.
 IPart=  1 Atom   2 batch   20 overlaps    7 atoms,    20 shells and     4 DB shells.   NGrid=       604
 IPart=  5 Atom   2 batch   21 overlaps    7 atoms,     9 shells and     0 DB shells.   NGrid=       604
 IPart=  7 Atom   2 batch   22 overlaps    7 atoms,     4 shells and     0 DB shells.   NGrid=       604
 Pruned (  99, 590) grid will be used in numerical quadrature.
 IPart=  2 Atom number   3 atomic number  8 has       23718 grid points.
 IPart=  2 Atom   3 batch    1 overlaps    7 atoms,    79 shells and     7 DB shells.   NGrid=      2408
 Symmetry reduced    86 angular points to    86 for atom    3.
 Pruned (  99, 590) grid will be used in numerical quadrature.
 IPart=  1 Atom number   3 atomic number  8 has       23718 grid points.
 IPart=  1 Atom   3 batch    2 overlaps    7 atoms,    81 shells and     7 DB shells.   NGrid=      2522
 Symmetry reduced   194 angular points to   194 for atom    3.
 Pruned (  99, 590) grid will be used in numerical quadrature.
 IPart=  3 Atom number   3 atomic number  8 has       23718 grid points.
 IPart=  3 Atom   3 batch    3 overlaps    7 atoms,    81 shells and     7 DB shells.   NGrid=      2114
 Symmetry reduced   302 angular points to   302 for atom    3.
 Pruned (  99, 590) grid will be used in numerical quadrature.
 IPart=  0 Atom number   3 atomic number  8 has       23718 grid points.
 IPart=  0 Atom   3 batch    4 overlaps    7 atoms,    81 shells and     7 DB shells.   NGrid=      1180
 Symmetry reduced   590 angular points to   590 for atom    3.
 Pruned (  99, 590) grid will be used in numerical quadrature.
 IPart=  7 Atom number   3 atomic number  8 has       23718 grid points.
 Pruned (  99, 590) grid will be used in numerical quadrature.
 IPart=  7 Atom   3 batch    5 overlaps    7 atoms,    82 shells and     7 DB shells.   NGrid=      1180
 IPart=  5 Atom number   3 atomic number  8 has       23718 grid points.
 Symmetry reduced   590 angular points to   590 for atom    3.
 IPart=  5 Atom   3 batch    6 overlaps    7 atoms,    82 shells and     7 DB shells.   NGrid=      1180
 Symmetry reduced   590 angular points to   590 for atom    3.
 Pruned (  99, 590) grid will be used in numerical quadrature.
 IPart=  6 Atom number   3 atomic number  8 has       23718 grid points.
 IPart=  6 Atom   3 batch    7 overlaps    7 atoms,    82 shells and     7 DB shells.   NGrid=      1180
 Symmetry reduced   590 angular points to   590 for atom    3.
 Pruned (  99, 590) grid will be used in numerical quadrature.
 IPart=  4 Atom number   3 atomic number  8 has       23718 grid points.
 IPart=  4 Atom   3 batch    8 overlaps    7 atoms,    83 shells and     7 DB shells.   NGrid=      1180
 Symmetry reduced   590 angular points to   590 for atom    3.
 IPart=  0 Atom   3 batch    9 overlaps    7 atoms,    83 shells and     7 DB shells.   NGrid=      1180
 IPart=  7 Atom   3 batch   10 overlaps    7 atoms,    83 shells and     7 DB shells.   NGrid=      1180
 IPart=  5 Atom   3 batch   11 overlaps    7 atoms,    83 shells and     7 DB shells.   NGrid=      1180
 IPart=  6 Atom   3 batch   12 overlaps    7 atoms,    82 shells and     7 DB shells.   NGrid=       590
 IPart=  4 Atom   3 batch   13 overlaps    7 atoms,    82 shells and     7 DB shells.   NGrid=       604
 Symmetry reduced   302 angular points to   302 for atom    3.
 IPart=  2 Atom   3 batch   14 overlaps    7 atoms,    82 shells and     7 DB shells.   NGrid=       604
 Symmetry reduced   302 angular points to   302 for atom    3.
 IPart=  6 Atom   3 batch   15 overlaps    7 atoms,    79 shells and     7 DB shells.   NGrid=       604
 Symmetry reduced   302 angular points to   302 for atom    3.
 IPart=  3 Atom   3 batch   16 overlaps    7 atoms,    78 shells and     7 DB shells.   NGrid=       604
 IPart=  4 Atom   3 batch   17 overlaps    7 atoms,    76 shells and     7 DB shells.   NGrid=       604
 IPart=  1 Atom   3 batch   18 overlaps    7 atoms,    68 shells and     7 DB shells.   NGrid=       604
 Symmetry reduced   302 angular points to   302 for atom    3.
 IPart=  4 Atom   3 batch   19 overlaps    7 atoms,    58 shells and     7 DB shells.   NGrid=       604
 IPart=  0 Atom   3 batch   20 overlaps    7 atoms,    40 shells and     6 DB shells.   NGrid=       604
 Symmetry reduced   302 angular points to   302 for atom    3.
 IPart=  1 Atom   3 batch   21 overlaps    7 atoms,    25 shells and     5 DB shells.   NGrid=       604
 IPart=  3 Atom   3 batch   22 overlaps    7 atoms,    11 shells and     0 DB shells.   NGrid=       604
 IPart=  7 Atom   3 batch   23 overlaps    7 atoms,     4 shells and     0 DB shells.   NGrid=       604
 Pruned (  99, 590) grid will be used in numerical quadrature.
 Symmetry reduced   302 angular points to   302 for atom    3.
 IPart=  5 Atom number   4 atomic number  8 has       23718 grid points.
 IPart=  5 Atom   4 batch    1 overlaps    7 atoms,    79 shells and     7 DB shells.   NGrid=      2408
 Symmetry reduced    86 angular points to    86 for atom    4.
 Pruned (  99, 590) grid will be used in numerical quadrature.
 IPart=  6 Atom number   4 atomic number  8 has       23718 grid points.
 IPart=  6 Atom   4 batch    2 overlaps    7 atoms,    80 shells and     7 DB shells.   NGrid=      2522
 Symmetry reduced   194 angular points to   194 for atom    4.
 Pruned (  99, 590) grid will be used in numerical quadrature.
 IPart=  0 Atom number   4 atomic number  8 has       23718 grid points.
 IPart=  0 Atom   4 batch    3 overlaps    7 atoms,    81 shells and     7 DB shells.   NGrid=      2114
 Symmetry reduced   302 angular points to   302 for atom    4.
 Pruned (  99, 590) grid will be used in numerical quadrature.
 IPart=  7 Atom number   4 atomic number  8 has       23718 grid points.
 IPart=  7 Atom   4 batch    4 overlaps    7 atoms,    81 shells and     7 DB shells.   NGrid=      1180
 Symmetry reduced   590 angular points to   590 for atom    4.
 Pruned (  99, 590) grid will be used in numerical quadrature.
 IPart=  2 Atom number   4 atomic number  8 has       23718 grid points.
 IPart=  2 Atom   4 batch    5 overlaps    7 atoms,    82 shells and     7 DB shells.   NGrid=      1180
 Symmetry reduced   590 angular points to   590 for atom    4.
 Pruned (  99, 590) grid will be used in numerical quadrature.
 IPart=  1 Atom number   4 atomic number  8 has       23718 grid points.
 IPart=  1 Atom   4 batch    6 overlaps    7 atoms,    82 shells and     7 DB shells.   NGrid=      1180
 Symmetry reduced   590 angular points to   590 for atom    4.
 Pruned (  99, 590) grid will be used in numerical quadrature.
 IPart=  3 Atom number   4 atomic number  8 has       23718 grid points.
 IPart=  3 Atom   4 batch    7 overlaps    7 atoms,    82 shells and     7 DB shells.   NGrid=      1180
 Symmetry reduced   590 angular points to   590 for atom    4.
 Pruned (  99, 590) grid will be used in numerical quadrature.
 IPart=  4 Atom number   4 atomic number  8 has       23718 grid points.
 IPart=  4 Atom   4 batch    8 overlaps    7 atoms,    83 shells and     7 DB shells.   NGrid=      1180
 Symmetry reduced   590 angular points to   590 for atom    4.
 IPart=  7 Atom   4 batch    9 overlaps    7 atoms,    83 shells and     7 DB shells.   NGrid=      1180
 IPart=  2 Atom   4 batch   10 overlaps    7 atoms,    83 shells and     7 DB shells.   NGrid=      1180
 IPart=  1 Atom   4 batch   11 overlaps    7 atoms,    83 shells and     7 DB shells.   NGrid=      1180
 IPart=  3 Atom   4 batch   12 overlaps    7 atoms,    82 shells and     7 DB shells.   NGrid=       590
 IPart=  4 Atom   4 batch   13 overlaps    7 atoms,    82 shells and     7 DB shells.   NGrid=       604
 Symmetry reduced   302 angular points to   302 for atom    4.
 IPart=  3 Atom   4 batch   14 overlaps    7 atoms,    82 shells and     7 DB shells.   NGrid=       604
 Symmetry reduced   302 angular points to   302 for atom    4.
 IPart=  5 Atom   4 batch   15 overlaps    7 atoms,    79 shells and     7 DB shells.   NGrid=       604
 Symmetry reduced   302 angular points to   302 for atom    4.
 IPart=  0 Atom   4 batch   16 overlaps    7 atoms,    78 shells and     7 DB shells.   NGrid=       604
 IPart=  4 Atom   4 batch   17 overlaps    7 atoms,    76 shells and     7 DB shells.   NGrid=       604
 IPart=  6 Atom   4 batch   18 overlaps    7 atoms,    68 shells and     7 DB shells.   NGrid=       604
 Symmetry reduced   302 angular points to   302 for atom    4.
 IPart=  7 Atom   4 batch   19 overlaps    7 atoms,    56 shells and     7 DB shells.   NGrid=       604
 Symmetry reduced   302 angular points to   302 for atom    4.
 IPart=  4 Atom   4 batch   20 overlaps    7 atoms,    40 shells and     6 DB shells.   NGrid=       604
 IPart=  2 Atom   4 batch   21 overlaps    7 atoms,    24 shells and     5 DB shells.   NGrid=       604
 Symmetry reduced   302 angular points to   302 for atom    4.
 IPart=  1 Atom   4 batch   22 overlaps    7 atoms,    10 shells and     0 DB shells.   NGrid=       604
 Symmetry reduced   302 angular points to   302 for atom    4.
 IPart=  0 Atom   4 batch   23 overlaps    7 atoms,     4 shells and     0 DB shells.   NGrid=       604
 Pruned (  99, 590) grid will be used in numerical quadrature.
 IPart=  4 Atom number   5 atomic number  1 has       23164 grid points.
 IPart=  4 Atom   5 batch    1 overlaps    7 atoms,    74 shells and     7 DB shells.   NGrid=      2838
 Symmetry reduced    86 angular points to    86 for atom    5.
 Pruned (  99, 590) grid will be used in numerical quadrature.
 IPart=  2 Atom number   5 atomic number  1 has       23164 grid points.
 IPart=  2 Atom   5 batch    2 overlaps    7 atoms,    76 shells and     7 DB shells.   NGrid=      1552
 Symmetry reduced   194 angular points to   194 for atom    5.
 Pruned (  99, 590) grid will be used in numerical quadrature.
 IPart=  5 Atom number   5 atomic number  1 has       23164 grid points.
 IPart=  5 Atom   5 batch    3 overlaps    7 atoms,    78 shells and     7 DB shells.   NGrid=      2416
 Symmetry reduced   302 angular points to   302 for atom    5.
 Pruned (  99, 590) grid will be used in numerical quadrature.
 IPart=  0 Atom number   5 atomic number  1 has       23164 grid points.
 IPart=  0 Atom   5 batch    4 overlaps    7 atoms,    78 shells and     7 DB shells.   NGrid=      1180
 Pruned (  99, 590) grid will be used in numerical quadrature.
 Symmetry reduced   590 angular points to   590 for atom    5.
 IPart=  6 Atom number   5 atomic number  1 has       23164 grid points.
 IPart=  6 Atom   5 batch    5 overlaps    7 atoms,    78 shells and     7 DB shells.   NGrid=      1180
 Symmetry reduced   590 angular points to   590 for atom    5.
 Pruned (  99, 590) grid will be used in numerical quadrature.
 IPart=  3 Atom number   5 atomic number  1 has       23164 grid points.
 IPart=  3 Atom   5 batch    6 overlaps    7 atoms,    79 shells and     7 DB shells.   NGrid=      1180
 Symmetry reduced   590 angular points to   590 for atom    5.
 Pruned (  99, 590) grid will be used in numerical quadrature.
 IPart=  1 Atom number   5 atomic number  1 has       23164 grid points.
 IPart=  1 Atom   5 batch    7 overlaps    7 atoms,    79 shells and     7 DB shells.   NGrid=      1180
 Symmetry reduced   590 angular points to   590 for atom    5.
 Pruned (  99, 590) grid will be used in numerical quadrature.
 IPart=  7 Atom number   5 atomic number  1 has       23164 grid points.
 IPart=  7 Atom   5 batch    8 overlaps    7 atoms,    81 shells and     7 DB shells.   NGrid=      1180
 Symmetry reduced   590 angular points to   590 for atom    5.
 IPart=  0 Atom   5 batch    9 overlaps    7 atoms,    82 shells and     7 DB shells.   NGrid=      1180
 IPart=  6 Atom   5 batch   10 overlaps    7 atoms,    82 shells and     7 DB shells.   NGrid=      1180
 IPart=  3 Atom   5 batch   11 overlaps    7 atoms,    82 shells and     7 DB shells.   NGrid=      1180
 IPart=  1 Atom   5 batch   12 overlaps    7 atoms,    83 shells and     7 DB shells.   NGrid=      1180
 IPart=  2 Atom   5 batch   13 overlaps    7 atoms,    83 shells and     7 DB shells.   NGrid=       604
 Symmetry reduced   302 angular points to   302 for atom    5.
 IPart=  7 Atom   5 batch   14 overlaps    7 atoms,    83 shells and     7 DB shells.   NGrid=       604
 Symmetry reduced   302 angular points to   302 for atom    5.
 IPart=  7 Atom   5 batch   15 overlaps    7 atoms,    79 shells and     7 DB shells.   NGrid=       604
 IPart=  2 Atom   5 batch   16 overlaps    7 atoms,    76 shells and     7 DB shells.   NGrid=       604
 IPart=  5 Atom   5 batch   17 overlaps    7 atoms,    63 shells and     7 DB shells.   NGrid=       604
 IPart=  4 Atom   5 batch   18 overlaps    7 atoms,    48 shells and     7 DB shells.   NGrid=       604
 Symmetry reduced   302 angular points to   302 for atom    5.
 IPart=  0 Atom   5 batch   19 overlaps    7 atoms,    32 shells and     7 DB shells.   NGrid=       604
 Symmetry reduced   302 angular points to   302 for atom    5.
 IPart=  3 Atom   5 batch   20 overlaps    7 atoms,    18 shells and     1 DB shells.   NGrid=       604
 IPart=  1 Atom   5 batch   21 overlaps    7 atoms,     9 shells and     0 DB shells.   NGrid=       604
 Symmetry reduced   302 angular points to   302 for atom    5.
 Symmetry reduced   302 angular points to   302 for atom    5.
 IPart=  6 Atom   5 batch   22 overlaps    7 atoms,     2 shells and     0 DB shells.   NGrid=       302
 Symmetry reduced   302 angular points to   302 for atom    5.
 Pruned (  99, 590) grid will be used in numerical quadrature.
 IPart=  0 Atom number   6 atomic number  1 has       23164 grid points.
 IPart=  0 Atom   6 batch    1 overlaps    7 atoms,    75 shells and     7 DB shells.   NGrid=      2838
 Symmetry reduced    86 angular points to    86 for atom    6.
 Pruned (  99, 590) grid will be used in numerical quadrature.
 IPart=  6 Atom number   6 atomic number  1 has       23164 grid points.
 IPart=  6 Atom   6 batch    2 overlaps    7 atoms,    75 shells and     7 DB shells.   NGrid=      1552
 Symmetry reduced   194 angular points to   194 for atom    6.
 Pruned (  99, 590) grid will be used in numerical quadrature.
 IPart=  2 Atom number   6 atomic number  1 has       23164 grid points.
 IPart=  2 Atom   6 batch    3 overlaps    7 atoms,    78 shells and     7 DB shells.   NGrid=      2416
 Symmetry reduced   302 angular points to   302 for atom    6.
 Pruned (  99, 590) grid will be used in numerical quadrature.
 IPart=  3 Atom number   6 atomic number  1 has       23164 grid points.
 IPart=  3 Atom   6 batch    4 overlaps    7 atoms,    79 shells and     7 DB shells.   NGrid=      1180
 Symmetry reduced   590 angular points to   590 for atom    6.
 Pruned (  99, 590) grid will be used in numerical quadrature.
 IPart=  7 Atom number   6 atomic number  1 has       23164 grid points.
 IPart=  7 Atom   6 batch    5 overlaps    7 atoms,    79 shells and     7 DB shells.   NGrid=      1180
 Symmetry reduced   590 angular points to   590 for atom    6.
 Pruned (  99, 590) grid will be used in numerical quadrature.
 IPart=  1 Atom number   6 atomic number  1 has       23164 grid points.
 IPart=  1 Atom   6 batch    6 overlaps    7 atoms,    80 shells and     7 DB shells.   NGrid=      1180
 Symmetry reduced   590 angular points to   590 for atom    6.
 Pruned (  99, 590) grid will be used in numerical quadrature.
 IPart=  4 Atom number   6 atomic number  1 has       23164 grid points.
 IPart=  4 Atom   6 batch    7 overlaps    7 atoms,    81 shells and     7 DB shells.   NGrid=      1180
 Symmetry reduced   590 angular points to   590 for atom    6.
 Pruned (  99, 590) grid will be used in numerical quadrature.
 IPart=  5 Atom number   6 atomic number  1 has       23164 grid points.
 IPart=  5 Atom   6 batch    8 overlaps    7 atoms,    81 shells and     7 DB shells.   NGrid=      1180
 Symmetry reduced   590 angular points to   590 for atom    6.
 IPart=  3 Atom   6 batch    9 overlaps    7 atoms,    82 shells and     7 DB shells.   NGrid=      1180
 IPart=  7 Atom   6 batch   10 overlaps    7 atoms,    82 shells and     7 DB shells.   NGrid=      1180
 IPart=  1 Atom   6 batch   11 overlaps    7 atoms,    83 shells and     7 DB shells.   NGrid=      1180
 IPart=  4 Atom   6 batch   12 overlaps    7 atoms,    83 shells and     7 DB shells.   NGrid=      1180
 IPart=  6 Atom   6 batch   13 overlaps    7 atoms,    83 shells and     7 DB shells.   NGrid=       604
 Symmetry reduced   302 angular points to   302 for atom    6.
 IPart=  5 Atom   6 batch   14 overlaps    7 atoms,    83 shells and     7 DB shells.   NGrid=       604
 Symmetry reduced   302 angular points to   302 for atom    6.
 IPart=  5 Atom   6 batch   15 overlaps    7 atoms,    79 shells and     7 DB shells.   NGrid=       604
 IPart=  6 Atom   6 batch   16 overlaps    7 atoms,    76 shells and     7 DB shells.   NGrid=       604
 IPart=  2 Atom   6 batch   17 overlaps    7 atoms,    63 shells and     7 DB shells.   NGrid=       604
 IPart=  3 Atom   6 batch   18 overlaps    7 atoms,    49 shells and     7 DB shells.   NGrid=       604
 Symmetry reduced   302 angular points to   302 for atom    6.
 IPart=  0 Atom   6 batch   19 overlaps    7 atoms,    32 shells and     7 DB shells.   NGrid=       604
 Symmetry reduced   302 angular points to   302 for atom    6.
 IPart=  7 Atom   6 batch   20 overlaps    7 atoms,    18 shells and     1 DB shells.   NGrid=       604
 Symmetry reduced   302 angular points to   302 for atom    6.
 IPart=  5 Atom   6 batch   21 overlaps    7 atoms,     9 shells and     0 DB shells.   NGrid=       604
 IPart=  1 Atom   6 batch   22 overlaps    7 atoms,     2 shells and     0 DB shells.   NGrid=       302
 Symmetry reduced   302 angular points to   302 for atom    6.
 Pruned (  99, 590) grid will be used in numerical quadrature.
 IPart=  1 Atom number   7 atomic number  1 has       23164 grid points.
 IPart=  1 Atom   7 batch    1 overlaps    7 atoms,    75 shells and     7 DB shells.   NGrid=      2838
 Symmetry reduced    86 angular points to    86 for atom    7.
 Pruned (  99, 590) grid will be used in numerical quadrature.
 Pruned (  99, 590) grid will be used in numerical quadrature.
 IPart=  6 Atom number   7 atomic number  1 has       23164 grid points.
 IPart=  7 Atom number   7 atomic number  1 has       23164 grid points.
 IPart=  6 Atom   7 batch    2 overlaps    7 atoms,    75 shells and     7 DB shells.   NGrid=      1552
 IPart=  7 Atom   7 batch    3 overlaps    7 atoms,    78 shells and     7 DB shells.   NGrid=      2416
 Symmetry reduced   194 angular points to   194 for atom    7.
 Symmetry reduced   302 angular points to   302 for atom    7.
 Pruned (  99, 590) grid will be used in numerical quadrature.
 Pruned (  99, 590) grid will be used in numerical quadrature.
 IPart=  0 Atom number   7 atomic number  1 has       23164 grid points.
 IPart=  2 Atom number   7 atomic number  1 has       23164 grid points.
 IPart=  0 Atom   7 batch    4 overlaps    7 atoms,    79 shells and     7 DB shells.   NGrid=      1180
 IPart=  2 Atom   7 batch    5 overlaps    7 atoms,    79 shells and     7 DB shells.   NGrid=      1180
 Symmetry reduced   590 angular points to   590 for atom    7.
 Symmetry reduced   590 angular points to   590 for atom    7.
 Pruned (  99, 590) grid will be used in numerical quadrature.
 IPart=  4 Atom number   7 atomic number  1 has       23164 grid points.
 Pruned (  99, 590) grid will be used in numerical quadrature.
 IPart=  4 Atom   7 batch    6 overlaps    7 atoms,    80 shells and     7 DB shells.   NGrid=      1180
 IPart=  5 Atom number   7 atomic number  1 has       23164 grid points.
 IPart=  5 Atom   7 batch    7 overlaps    7 atoms,    81 shells and     7 DB shells.   NGrid=      1180
 Symmetry reduced   590 angular points to   590 for atom    7.
 Symmetry reduced   590 angular points to   590 for atom    7.
 Pruned (  99, 590) grid will be used in numerical quadrature.
 IPart=  3 Atom number   7 atomic number  1 has       23164 grid points.
 IPart=  3 Atom   7 batch    8 overlaps    7 atoms,    81 shells and     7 DB shells.   NGrid=      1180
 Symmetry reduced   590 angular points to   590 for atom    7.
 IPart=  2 Atom   7 batch    9 overlaps    7 atoms,    82 shells and     7 DB shells.   NGrid=      1180
 IPart=  0 Atom   7 batch   10 overlaps    7 atoms,    82 shells and     7 DB shells.   NGrid=      1180
 IPart=  4 Atom   7 batch   11 overlaps    7 atoms,    83 shells and     7 DB shells.   NGrid=      1180
 IPart=  5 Atom   7 batch   12 overlaps    7 atoms,    83 shells and     7 DB shells.   NGrid=      1180
 IPart=  3 Atom   7 batch   13 overlaps    7 atoms,    83 shells and     7 DB shells.   NGrid=       604
 Symmetry reduced   302 angular points to   302 for atom    7.
 IPart=  6 Atom   7 batch   14 overlaps    7 atoms,    83 shells and     7 DB shells.   NGrid=       604
 Symmetry reduced   302 angular points to   302 for atom    7.
 IPart=  6 Atom   7 batch   15 overlaps    7 atoms,    79 shells and     7 DB shells.   NGrid=       604
 IPart=  3 Atom   7 batch   16 overlaps    7 atoms,    76 shells and     7 DB shells.   NGrid=       604
 IPart=  7 Atom   7 batch   17 overlaps    7 atoms,    63 shells and     7 DB shells.   NGrid=       604
 IPart=  2 Atom   7 batch   18 overlaps    7 atoms,    49 shells and     7 DB shells.   NGrid=       604
 Symmetry reduced   302 angular points to   302 for atom    7.
 IPart=  3 Atom   7 batch   19 overlaps    7 atoms,    32 shells and     7 DB shells.   NGrid=       604
 IPart=  0 Atom   7 batch   20 overlaps    7 atoms,    18 shells and     1 DB shells.   NGrid=       604
 Symmetry reduced   302 angular points to   302 for atom    7.
 IPart=  4 Atom   7 batch   21 overlaps    7 atoms,     9 shells and     0 DB shells.   NGrid=       604
 Symmetry reduced   302 angular points to   302 for atom    7.
 IPart=  1 Atom   7 batch   22 overlaps    7 atoms,     2 shells and     0 DB shells.   NGrid=       302
 Symmetry reduced   302 angular points to   302 for atom    7.
 There are a total of      163156 grid points.
 ElSum from          density=       32.0000019774
 ElSum from atomic densities=       31.0000017187

 Hirshfeld populations at iteration   1 (CX, CA, CB, DipXYZ):
               1          2          3          4          5          6
     1  C    0.000000   3.055912   3.055912  -0.032726  -0.003169  -0.000002
     2  C    0.000000   2.914558   2.914558   0.117878  -0.006435  -0.000009
     3  O    0.000012   4.261954   4.261954   0.144251   0.234229  -0.000004
     4  O    0.000012   4.264592   4.264592   0.123910  -0.250416  -0.000004
     5  H    0.000003   0.502571   0.502571   0.040493  -0.116481  -0.000044
     6  H    0.000003   0.500208   0.500208   0.036102   0.059752  -0.107651
     7  H    0.000003   0.500206   0.500206   0.036089   0.059677   0.107702
       Tot   0.000032  16.000001  16.000001   0.465997  -0.022843  -0.000012

 Dip from Atomic Chgs              1.115683  -0.042834   0.000003
         Total Dipole              1.581680  -0.065676  -0.000009

 Hirshfeld charges, spin densities, dipoles, and CM5 charges using IRadAn=      5:
              Q-H        S-H        Dx         Dy         Dz        Q-CM5   
     1  C   -0.111823   0.000000  -0.032726  -0.003169  -0.000002  -0.249025
     2  C    0.170884   0.000000   0.117878  -0.006435  -0.000009   0.227806
     3  O   -0.523909   0.000000   0.144251   0.234229  -0.000004  -0.563827
     4  O   -0.529183   0.000000   0.123910  -0.250416  -0.000004  -0.569317
     5  H   -0.005141   0.000000   0.040493  -0.116481  -0.000044   0.048874
     6  H   -0.000417   0.000000   0.036102   0.059752  -0.107651   0.052742
     7  H   -0.000412   0.000000   0.036089   0.059677   0.107702   0.052745
       Tot  -1.000002   0.000000   0.465997  -0.022843  -0.000012  -1.000002
 Hirshfeld charges with hydrogens summed into heavy atoms:
              Q-H       Q-CM5   
     1  C   -0.117794  -0.094664
     2  C    0.170884   0.227806
     3  O   -0.523909  -0.563827
     4  O   -0.529183  -0.569317
 
 EQQ=  0.00000000000     EQD=  0.00000000000     EDD= 0.907975427171E-03
 EQQ+QD+DD= 0.907975427171E-03
 
  Exact polarizability:      42.883       0.368      42.679       0.000       0.000      30.978
 Approx polarizability:      33.302       0.455      36.998       0.000       0.000      29.096
 Entering OneElI...
 OneElI was handed  1572705918 working-precision words.
 Calculate electrostatic properties
    NBasis =   253  MinDer = 0  MaxDer = 0
    NGrid  =     7  NMatD  =   1
 Requested accuracy = 0.1000D-12
 ShPair: Thresh= 1.00D-13 NBox=     0 BxSize= 0.00D+00 RnKept= 6.24D+00
         NSMCal=                 3486 NSMKep=                3452
 PrmmSu-InSpLW:  IPartL=    0 NPrtUS=    8 NPrtUL=    1 DoSpLW=F IThBeg=    0 IThEnd=    7 NThAct=    8.
 PrSmSu:  IncTry=   512 NBBP=          24164 NTPThr=   100 NPartT=    8 Incr=          30 LDynOK=F GPUOK=F.
 PrsmSu:  NPrtUS=   8 ThrOK=T IAlg=2 LenDen=           0 ISkipM=0 DoSpLW=F IThBeg=    0 IThEnd=    7.
 Prism:   IPart=     0 DynPar=F LinDyn=F Incr=          30.
 PRISM was handed   196497049 working-precision words and  3452 shell-pairs
 PRISM was handed   196497049 working-precision words and  3452 shell-pairs
 PRISM was handed   196497049 working-precision words and  3452 shell-pairs
 PRISM was handed   196497049 working-precision words and  3452 shell-pairs
 PRISM was handed   196497049 working-precision words and  3452 shell-pairs
 PRISM was handed   196497049 working-precision words and  3452 shell-pairs
 PRISM was handed   196497049 working-precision words and  3452 shell-pairs
 PRISM was handed   196497049 working-precision words and  3452 shell-pairs
 IPart=  7 NShTot=        2863 NBatch=         409 AvBLen=         7.0
 PrsmSu-ThDecC:  IPartSL=    7    0 NPrtUSL=    8    1 IThBeg=    0 IThEnd=    7 CPU=   -1 GPU=   -1 NThAct=    8.
 IPart=  4 NShTot=        2947 NBatch=         421 AvBLen=         7.0
 IPart=  5 NShTot=        2912 NBatch=         416 AvBLen=         7.0
 PrsmSu-ThDecC:  IPartSL=    4    0 NPrtUSL=    8    1 IThBeg=    0 IThEnd=    7 CPU=   -1 GPU=   -1 NThAct=    7.
[...]
     10 -0.451756D-02 -0.401709D-01 -0.401709D-01  0.872141D-02  0.608612D-01
     11 -0.525308D-02 -0.380806D-01  0.906596D-02 -0.391337D-01  0.621891D-02
     12 -0.845376D-03  0.906596D-02 -0.380806D-01 -0.391337D-01  0.621891D-02
     13 -0.537284D-01 -0.187623D-01  0.238347D-01 -0.442732D-03 -0.191621D-02
     14  0.262385D-01  0.238347D-01 -0.187623D-01 -0.442724D-03 -0.191621D-02
     15  0.274834D-01 -0.491602D-02 -0.491603D-02  0.527780D-03  0.373521D-02
     16  0.173770D-03 -0.276958D-02 -0.104321D-01  0.129303D-01 -0.850718D-02
     17  0.310230D-03  0.364118D-02 -0.402138D-02 -0.188586D-02 -0.124809D-01
     18  0.705314D-03  0.402138D-02 -0.364118D-02  0.188586D-02  0.124809D-01
     19  0.841774D-03  0.104321D-01  0.276958D-02 -0.129303D-01  0.850718D-02
     20 -0.107921D-02 -0.942171D-02  0.301095D-02  0.740808D-02  0.198688D-02
     21 -0.942751D-03 -0.301095D-02  0.942171D-02 -0.740808D-02 -0.198688D-02
               11            12            13            14            15 
     11  0.579119D-01
     12  0.593054D-02  0.579119D-01
     13  0.584044D-02 -0.876763D-02  0.194987D+00
     14 -0.876764D-02  0.584043D-02 -0.777538D-01  0.194987D+00
     15  0.299274D-02  0.299274D-02 -0.117187D+00 -0.117187D+00  0.234323D+00
     16  0.114742D-01 -0.151395D-02 -0.450785D-03 -0.884155D-03  0.451939D-03
     17  0.142347D-01  0.124655D-02 -0.271957D-03 -0.705322D-03  0.176194D-02
     18 -0.124654D-02 -0.142347D-01  0.705325D-03  0.271954D-03 -0.176195D-02
     19  0.151395D-02 -0.114742D-01  0.884153D-03  0.450787D-03 -0.451941D-03
     20 -0.128406D-01  0.100802D-01  0.365171D-02 -0.383054D-02 -0.655005D-03
     21 -0.100802D-01  0.128406D-01  0.383054D-02 -0.365171D-02  0.655001D-03
               16            17            18            19            20 
     16  0.322391D-01
     17 -0.435039D-02  0.281965D-01
     18  0.118486D-01 -0.206982D-01  0.281965D-01
     19 -0.247408D-01  0.118486D-01 -0.435039D-02  0.322391D-01
     20  0.118800D-01 -0.226881D-01  0.985873D-02 -0.247094D-01  0.284877D-01
     21 -0.247094D-01  0.985873D-02 -0.226881D-01  0.118800D-01 -0.608049D-02
               21 
     21  0.284877D-01
 Leave Link  716 at Wed Jun 19 09:03:26 2024, MaxMem=  1572864000 cpu:               0.2 elap:               0.0
 (Enter /software/sse/easybuild/prefix/software/Gaussian/16.C.01-avx2-nsc1/g16/l103.exe)

 GradGradGradGradGradGradGradGradGradGradGradGradGradGradGradGradGradGrad
 Berny optimization.
 Red2BG is reusing G-inverse.
 Internal  Forces:  Max     0.000001555 RMS     0.000000687
 Search for a local minimum.
 Step number   1 out of a maximum of    2
 All quantities printed in internal units (Hartrees-Bohrs-Radians)
 Second derivative matrix not updated -- analytic derivatives used.
 ITU=  0
     Eigenvalues ---    0.00006   0.06109   0.06667   0.09476   0.13239
     Eigenvalues ---    0.13905   0.15218   0.22742   0.26327   0.35137
     Eigenvalues ---    0.36336   0.36719   0.38384   0.63632   0.88012
 Angle between quadratic step and forces=  34.53 degrees.
 Linear search not attempted -- first point.
 Iteration  1 RMS(Cart)=  0.00000548 RMS(Int)=  0.00000000
 Iteration  2 RMS(Cart)=  0.00000000 RMS(Int)=  0.00000000
 ITry= 1 IFail=0 DXMaxC= 1.44D-05 DCOld= 1.00D+10 DXMaxT= 3.00D-01 DXLimC= 3.00D+00 Rises=F
 ClnCor:  largest displacement from symmetrization is 1.25D-10 for atom     4.
 Variable       Old X    -DE/DX   Delta X   Delta X   Delta X     New X
                                 (Linear)    (Quad)   (Total)
    R1        2.92149   0.00000   0.00000  -0.00000  -0.00000   2.92149
    R2        2.04836   0.00000   0.00000   0.00000   0.00000   2.04836
    R3        2.04836   0.00000   0.00000   0.00000   0.00000   2.04836
    R4        2.05534  -0.00000   0.00000  -0.00000  -0.00000   2.05534
    R5        2.32885  -0.00000   0.00000  -0.00000  -0.00000   2.32885
    R6        2.32885  -0.00000   0.00000  -0.00000  -0.00000   2.32885
    A1        1.93870  -0.00000   0.00000  -0.00000  -0.00000   1.93870
    A2        1.93870  -0.00000   0.00000  -0.00000  -0.00000   1.93870
    A3        1.89045   0.00000   0.00000   0.00000   0.00000   1.89045
    A4        1.92704   0.00000   0.00000   0.00002   0.00002   1.92706
    A5        1.88342  -0.00000   0.00000  -0.00001  -0.00001   1.88341
    A6        1.88342  -0.00000   0.00000  -0.00001  -0.00001   1.88341
    A7        2.01838   0.00000   0.00000   0.00000   0.00000   2.01838
    A8        2.01838   0.00000   0.00000   0.00000   0.00000   2.01838
    A9        2.24614  -0.00000   0.00000  -0.00000  -0.00000   2.24614
    D1        0.50631  -0.00000   0.00000  -0.00001  -0.00001   0.50630
    D2       -2.65845  -0.00000   0.00000  -0.00001  -0.00001  -2.65846
    D3        2.65845   0.00000   0.00000   0.00001   0.00001   2.65846
    D4       -0.50631   0.00000   0.00000   0.00001   0.00001  -0.50630
    D5       -1.55921  -0.00000   0.00000  -0.00000  -0.00000  -1.55921
    D6        1.55921   0.00000   0.00000   0.00000   0.00000   1.55921
         Item               Value     Threshold  Converged?
 Maximum Force            0.000002     0.000002     NO 
 RMS     Force            0.000001     0.000001     YES
 Maximum Displacement     0.000014     0.000006     NO 
 RMS     Displacement     0.000005     0.000004     NO 
 Predicted change in Energy=-4.050609D-11
                           ----------------------------
                           ! Non-Optimized Parameters !
                           ! (Angstroms and Degrees)  !
 --------------------------                            --------------------------
 ! Name  Definition              Value          Derivative Info.                !
 --------------------------------------------------------------------------------
 ! R1    R(1,2)                  1.546          -DE/DX =    0.0                 !
 ! R2    R(1,5)                  1.0839         -DE/DX =    0.0                 !
 ! R3    R(1,6)                  1.0839         -DE/DX =    0.0                 !
 ! R4    R(1,7)                  1.0876         -DE/DX =    0.0                 !
 ! R5    R(2,3)                  1.2324         -DE/DX =    0.0                 !
 ! R6    R(2,4)                  1.2324         -DE/DX =    0.0                 !
 ! A1    A(2,1,5)              111.0794         -DE/DX =    0.0                 !
 ! A2    A(2,1,6)              111.0794         -DE/DX =    0.0                 !
 ! A3    A(2,1,7)              108.3147         -DE/DX =    0.0                 !
 ! A4    A(5,1,6)              110.4122         -DE/DX =    0.0                 !
 ! A5    A(5,1,7)              107.9117         -DE/DX =    0.0                 !
 ! A6    A(6,1,7)              107.9117         -DE/DX =    0.0                 !
 ! A7    A(1,2,3)              115.6449         -DE/DX =    0.0                 !
 ! A8    A(1,2,4)              115.6449         -DE/DX =    0.0                 !
 ! A9    A(3,2,4)              128.6942         -DE/DX =    0.0                 !
 ! D1    D(5,1,2,3)             29.0087         -DE/DX =    0.0                 !
 ! D2    D(5,1,2,4)           -152.3186         -DE/DX =    0.0                 !
 ! D3    D(6,1,2,3)            152.3186         -DE/DX =    0.0                 !
 ! D4    D(6,1,2,4)            -29.0087         -DE/DX =    0.0                 !
 ! D5    D(7,1,2,3)            -89.3364         -DE/DX =    0.0                 !
 ! D6    D(7,1,2,4)             89.3364         -DE/DX =    0.0                 !
 --------------------------------------------------------------------------------
 GradGradGradGradGradGradGradGradGradGradGradGradGradGradGradGradGradGrad

 Leave Link  103 at Wed Jun 19 09:03:26 2024, MaxMem=  1572864000 cpu:               0.1 elap:               0.0
 (Enter /software/sse/easybuild/prefix/software/Gaussian/16.C.01-avx2-nsc1/g16/l9999.exe)

 ----------------------------------------------------------------------

 Electric dipole moment (input orientation):
 (Debye = 10**-18 statcoulomb cm , SI units = C m)
                  (au)            (Debye)         (10**-30 SI)
   Tot        0.158507D+01      0.402883D+01      0.134387D+02
   x         -0.158454D+01     -0.402750D+01     -0.134343D+02
   y         -0.362265D-01     -0.920786D-01     -0.307141D+00
   z          0.185624D-01      0.471810D-01      0.157379D+00

 Dipole polarizability, Alpha (input orientation).
 (esu units = cm**3 , SI units = C**2 m**2 J**-1)
 Alpha(0;0):
               (au)            (10**-24 esu)      (10**-40 SI)
   iso        0.378804D+02      0.561330D+01      0.624564D+01
   aniso      0.112249D+02      0.166336D+01      0.185073D+01
   xx         0.416160D+02      0.616685D+01      0.686155D+01
   yx        -0.141668D-01     -0.209930D-02     -0.233579D-02
   yy         0.406294D+02      0.602065D+01      0.669888D+01
   zx         0.446218D-01      0.661228D-02      0.735715D-02
   zy         0.319652D+01      0.473675D+00      0.527034D+00
   zz         0.313960D+02      0.465240D+01      0.517650D+01

 First dipole hyperpolarizability, Beta (input orientation).
 ||, _|_  parallel and perpendicular components, (z) with respect to z axis,
 vector components x,y,z.  Values do not include the 1/n! factor of 1/2.
 (esu units = statvolt**-1 cm**4 , SI units = C**3 m**3 J**-2)
 Beta(0;0,0):
               (au)            (10**-30 esu)      (10**-50 SI)
   || (z)    -0.710428D+01     -0.613754D-01     -0.227789D-01
   _|_(z)    -0.236809D+01     -0.204585D-01     -0.759296D-02
   x         -0.619689D+03     -0.535363D+01     -0.198695D+01
   y         -0.806286D+00     -0.696569D-02     -0.258525D-02
   z         -0.355214D+02     -0.306877D+00     -0.113894D+00
   ||         0.124141D+03      0.107248D+01      0.398042D+00
   xxx       -0.107890D+03     -0.932084D+00     -0.345934D+00
   xxy        0.224594D+01      0.194032D-01      0.720130D-02
   yxy       -0.699249D+02     -0.604097D+00     -0.224205D+00
   yyy       -0.944205D+01     -0.815719D-01     -0.302746D-01
   xxz       -0.465420D+01     -0.402087D-01     -0.149231D-01
   yxz       -0.145319D+02     -0.125545D+00     -0.465946D-01
   yyz        0.322033D+01      0.278211D-01      0.103255D-01
   zxz       -0.287483D+02     -0.248363D+00     -0.921774D-01
   zyz        0.692734D+01      0.598468D-01      0.222116D-01
   zzz       -0.104066D+02     -0.899048D-01     -0.333673D-01

 ----------------------------------------------------------------------

 Dipole orientation:
     6          0.00101483          0.00648158          2.54445124
     6          0.02099357          0.00074025         -0.37696979
     8         -0.57530052         -2.01217324         -1.38502473
     8          0.58433112          2.02312453         -1.38502473
     1          0.40352572         -1.85939173          3.28760829
     1          1.33270989          1.37399264          3.28760829
     1         -1.87868599          0.54665499          3.17641360

 Electric dipole moment (dipole orientation):
 (Debye = 10**-18 statcoulomb cm , SI units = C m)
                  (au)            (Debye)         (10**-30 SI)
   Tot        0.158507D+01      0.402883D+01      0.134387D+02
   x          0.000000D+00      0.000000D+00      0.000000D+00
   y          0.000000D+00      0.000000D+00      0.000000D+00
   z          0.158507D+01      0.402883D+01      0.134387D+02

 Dipole polarizability, Alpha (dipole orientation).
 (esu units = cm**3 , SI units = C**2 m**2 J**-1)
 Alpha(0;0):
               (au)            (10**-24 esu)      (10**-40 SI)
   iso        0.378804D+02      0.561330D+01      0.624564D+01
   aniso      0.112249D+02      0.166336D+01      0.185073D+01
   xx         0.312590D+02      0.463210D+01      0.515391D+01
   yx         0.297976D+01      0.441554D+00      0.491295D+00
   yy         0.407717D+02      0.604174D+01      0.672234D+01
   zx        -0.238934D+00     -0.354063D-01     -0.393948D-01
   zy         0.686628D-01      0.101748D-01      0.113210D-01
   zz         0.416106D+02      0.616606D+01      0.686067D+01

 First dipole hyperpolarizability, Beta (dipole orientation).
 ||, _|_  parallel and perpendicular components, (z) with respect to z axis,
 vector components x,y,z.  Values do not include the 1/n! factor of 1/2.
 (esu units = statvolt**-1 cm**4 , SI units = C**3 m**3 J**-2)
 Beta(0;0,0):
               (au)            (10**-30 esu)      (10**-50 SI)
   || (z)     0.123817D+03      0.106969D+01      0.397003D+00
   _|_(z)     0.412725D+02      0.356562D+00      0.132334D+00
   x         -0.430685D+02     -0.372078D+00     -0.138093D+00
   y          0.123767D+02      0.106925D+00      0.396841D-01
   z          0.619087D+03      0.534843D+01      0.198502D+01
   ||         0.124141D+03      0.107248D+01      0.398042D+00
   xxx       -0.118936D+02     -0.102752D+00     -0.381353D-01
   xxy        0.682998D+01      0.590057D-01      0.218994D-01
   yxy        0.348367D+01      0.300962D-01      0.111699D-01
   yyy       -0.441319D+01     -0.381265D-01     -0.141503D-01
   xxz        0.279496D+02      0.241463D+00      0.896164D-01
   yxz        0.134378D+02      0.116092D+00      0.430864D-01
   yyz        0.708489D+02      0.612079D+00      0.227167D+00
   zxz       -0.594619D+01     -0.513704D-01     -0.190656D-01
   zyz        0.170877D+01      0.147624D-01      0.547893D-02
   zzz        0.107564D+03      0.929269D+00      0.344889D+00

 ----------------------------------------------------------------------

 Test job not archived.
 1\1\NSC-N1798\Freq\RHF\Aug-CC-pVTZ\C2H3O2(1-)\X_DAVVA\19-Jun-2024\0\\#
 P Geom=AllCheck Guess=TCheck SCRF=Check Test GenChk RHF/Aug-CC-pVTZ Fr
 eq\\acetate\\-1,1\C,-1.3460924366,-0.0273573466,0.0163834712\C,0.19954
 50201,0.0046998266,0.0087784878\O,0.7530056256,-1.0406205155,-0.337254
 4892\O,0.7122855456,1.0798065844,0.3249978633\H,-1.7143222814,-1.02802
 33114,0.2113518068\H,-1.746950275,0.6710225153,0.7419982487\H,-1.69901
 97595,0.2731624896,-0.9675339603\\Version=ES64L-G16RevC.01\State=1-A'\
 HF=-227.3307588\RMSD=4.925e-09\RMSF=7.584e-07\ZeroPoint=0.0513242\Ther
 mal=0.0556241\ETot=-227.2751347\HTot=-227.2741905\GTot=-227.3070836\Di
 pole=-1.5845423,-0.0362265,0.0185624\DipoleDeriv=-0.4464471,-0.0050882
 ,-0.0260982,0.0013464,0.2427602,0.0007231,-0.0467009,0.0003275,0.23904
 02,1.7704493,-0.0085285,-0.0173846,-0.0039382,2.2922856,0.6561587,-0.0
 320808,0.6558765,0.3953078,-1.1425122,0.5538844,0.1797884,0.350646,-1.
 6261711,-0.3240643,0.1242276,-0.3475026,-0.7033849,-1.1083678,-0.53578
 82,-0.1606116,-0.3367967,-1.6728649,-0.3348345,-0.0914531,-0.3111351,-
 0.6908356,-0.0289011,-0.0665169,0.0151061,-0.1509192,-0.1926488,0.0511
 829,0.0449057,0.0535588,0.0358372,-0.0359998,0.0486647,0.0551597,0.101
 0896,-0.0644728,-0.1212435,0.1277467,-0.1216531,-0.08524,-0.0082211,0.
 0133728,-0.0459598,0.0385726,0.0211117,0.0720776,-0.1266453,0.0705281,
 -0.1907247\Polar=41.6159683,-0.0141668,40.6293609,0.0446218,3.1965156,
 31.3959768\PolarDeriv=-13.3318668,-0.4126356,3.307606,-0.054533,0.3274
 799,2.6301131,-0.6064567,5.3800077,3.3515681,0.5927203,-2.4415611,-3.4
 178302,0.4334867,0.5950683,-2.0707236,3.9368303,-3.278523,3.3365358,16
 .9981418,0.5950163,-5.1326956,-0.1929628,-1.5409994,-0.751384,0.653491
 2,-4.8362873,-0.9052077,-1.1550542,0.4222432,0.4036963,-0.4057151,-1.1
 618627,0.5713425,-1.5723001,0.4322286,0.0310708,-0.3295641,-2.0360825,
 3.3058048,-0.5910949,0.5761004,1.3044738,-0.6889054,3.0578836,-7.55584
 82,0.294162,-1.0058719,-2.5424896,-0.1335351,0.2049715,-1.0796166,1.99
 7485,-2.6793889,-2.3868406,-0.4970108,1.7744416,3.0390057,0.5930046,0.
 7220889,1.3191498,0.4210034,2.7410898,8.2426942,0.3382326,0.8214631,2.
 3974248,0.2017402,0.432602,0.6791374,2.0057469,2.4972967,2.3428175,-0.
 9748375,-1.4908432,-2.2040396,0.4165366,0.3651948,-0.6784183,-3.118371
 4,-3.1800169,-6.9458162,0.4913868,1.1913588,-1.2110227,0.6544784,0.598
 5012,1.1913348,-0.9477758,-0.7673919,0.3461184,-1.1796799,1.092172,-1.
 4282792,1.2929101,-0.8868583,-1.6172287,2.3170735,-1.96198,2.9677394,-
 1.2181116,2.0790468,2.5973304,2.4404579,-1.3032964,2.3191013,-2.258171
 6,2.2122833,3.4156022,-0.6851855,0.4779303,-0.8874065,-1.4638595,0.436
 9925,-2.2067097,1.0221639,-1.2006946,0.8448641,0.6566624,-1.0666764,1.
 7728901,-3.1909274,0.6340147,-1.6105834,-3.1618123,1.5834925,-7.085307
 9\HyperPolar=-107.8898277,2.2459411,-69.9249028,-9.4420452,-4.6542021,
 -14.5319321,3.2203285,-28.7482999,6.927342,-10.4065865\Quadrupole=-0.7
 009668,-2.8767351,3.577702,0.0190174,0.115765,-2.2314022\PG=CS [SG(C2H
 1),X(H2O2)]\NImag=0\\0.49042344,0.00150005,0.63772840,-0.01427657,0.02
 176730,0.57392470,-0.16170293,-0.00179022,0.00062233,0.65531196,-0.001
 60756,-0.08120272,0.00822966,-0.00431939,0.97844507,0.00003761,0.00821
 843,-0.10491336,-0.01004264,0.20823902,0.37619941,-0.03808671,0.045394
 28,0.01873142,-0.25135883,0.18101593,0.06253753,0.24703025,0.02013498,
 -0.01053513,-0.01135140,0.20302733,-0.43149000,-0.11049961,-0.23512622
 ,0.56201542,0.00837247,-0.01020401,0.02416307,0.06909282,-0.10929835,-
 0.13732898,-0.08140947,0.17209655,0.09180167,-0.03546705,-0.04875590,-
 0.01065982,-0.23678682,-0.17626171,-0.04933021,0.05479639,0.00462635,0
 .00026594,0.22931160,-0.02210391,-0.01183669,-0.01247461,-0.19810452,-
 0.45245825,-0.10232768,0.00296598,-0.12698263,-0.05102146,0.22596694,0
 .58708094,-0.00476011,-0.01370764,0.02284497,-0.05642515,-0.10353929,-
 0.13093273,-0.00026553,-0.05034923,0.01940087,0.06290031,0.16424903,0.
 08445481,-0.08475072,-0.08061212,0.02138606,0.00013323,-0.03719130,0.0
 0877719,0.00260759,0.00371857,-0.00186168,-0.01243247,-0.00270380,-0.0
 0376283,0.08616232,-0.08684236,-0.29060996,0.04579868,0.00546978,-0.00
 682504,-0.00223348,0.00091788,0.00468343,0.00026270,-0.00361889,0.0020
 1765,0.00054243,0.09304932,0.31740506,0.01940324,0.04348409,-0.0648674
 3,-0.00254349,-0.00057991,-0.00092189,0.00089246,-0.00100330,-0.000469
 97,-0.00122327,-0.00011008,0.00143913,-0.01893069,-0.05126902,0.063080
 75,-0.09037479,0.05842307,0.06869843,-0.00091737,0.02580893,0.02842808
 ,-0.01268844,0.00384315,-0.00170310,0.00276098,-0.00203010,-0.00369877
 ,0.00420860,-0.00646274,-0.00988845,0.09249575,0.06469963,-0.17155094,
 -0.11952259,-0.00284907,-0.00543321,-0.00047836,0.00315793,0.00229578,
 -0.00015132,-0.00128016,0.00255263,0.00176657,0.01198728,-0.01853958,-
 0.02265653,-0.07055426,0.18227299,0.07053289,-0.11721085,-0.17830238,-
 0.00508694,-0.00299295,-0.00126313,0.00088131,0.00059958,0.00141697,0.
 00011327,0.00315868,0.00150744,-0.00464861,0.00455078,0.00711893,-0.07
 439238,0.13382516,0.19187939,-0.08004121,0.02584085,-0.08450186,-0.004
 67926,0.01255511,-0.04040756,-0.00230027,-0.00022417,0.00724302,-0.002
 18265,-0.00399060,0.00601209,0.00407144,-0.00251298,0.01229018,0.00451
 526,-0.00516137,0.01260046,0.08061668,0.02421919,-0.07199296,0.0675529
 6,-0.00143390,-0.00103585,-0.00091833,0.00167422,0.00001312,-0.0016841
 1,-0.00067666,-0.00037364,0.00103814,0.01175206,-0.00813154,0.03213474
 ,-0.00902805,0.00840232,-0.02193040,-0.02650685,0.07311855,-0.07930955
 ,0.06765267,-0.27284958,0.00438306,-0.00005818,-0.00083933,-0.00136772
 ,0.00050740,0.00101638,-0.00206622,-0.00147387,0.00128553,-0.00095943,
 0.00234791,-0.00537953,-0.00744382,0.00721707,-0.02235721,0.08676367,-
 0.07619301,0.29912375\\-0.00000011,0.00000042,-0.00000134,0.00000086,0
 .00000002,0.,-0.00000054,-0.00000045,-0.00000014,-0.00000056,0.0000004
 3,0.00000013,-0.00000011,0.00000135,0.00000144,-0.00000005,-0.00000193
 ,0.00000042,0.00000051,0.00000017,-0.00000050\\\@


 I am not a vegetarian because I love animals;
 I am a vegetarian because I hate plants.
                               -- A. Whitney Brown
 Job cpu time:       0 days  0 hours  8 minutes 49.0 seconds.
 Elapsed time:       0 days  0 hours  1 minutes  7.3 seconds.
 File lengths (MBytes):  RWF=    352 Int=      0 D2E=      0 Chk=     12 Scr=      8
 Normal termination of Gaussian 16 at Wed Jun 19 09:03:26 2024.
