 Entering Gaussian System, Link 0=/software/sse/easybuild/prefix/software/Gaussian/16.C.01-avx2-nsc1/g16/g16.orig
 Input=ammonium-19-oep.wrap
 Output=ammonium-19-oep.log
 Initial command:
 /software/sse/easybuild/prefix/software/Gaussian/16.C.01-avx2-nsc1/g16/l1.exe "ammonium-19-oep..dir/Gau-29886.inp" -scrdir="ammonium-19-oep..dir/"
 Entering Link 1 = /software/sse/easybuild/prefix/software/Gaussian/16.C.01-avx2-nsc1/g16/l1.exe PID=     29967.
  
 Copyright (c) 1988-2019, Gaussian, Inc.  All Rights Reserved.
  
 This is part of the Gaussian(R) 16 program.  It is based on
 the Gaussian(R) 09 system (copyright 2009, Gaussian, Inc.),
 the Gaussian(R) 03 system (copyright 2003, Gaussian, Inc.),
 the Gaussian(R) 98 system (copyright 1998, Gaussian, Inc.),
 the Gaussian(R) 94 system (copyright 1995, Gaussian, Inc.),
 the Gaussian 92(TM) system (copyright 1992, Gaussian, Inc.),
 the Gaussian 90(TM) system (copyright 1990, Gaussian, Inc.),
 the Gaussian 88(TM) system (copyright 1988, Gaussian, Inc.),
 the Gaussian 86(TM) system (copyright 1986, Carnegie Mellon
 University), and the Gaussian 82(TM) system (copyright 1983,
 Carnegie Mellon University). Gaussian is a federally registered
 trademark of Gaussian, Inc.
  
 This software contains proprietary and confidential information,
 including trade secrets, belonging to Gaussian, Inc.
  
 This software is provided under written license and may be
 used, copied, transmitted, or stored only in accord with that
 written license.
  
 The following legend is applicable only to US Government
 contracts under FAR:
  
                    RESTRICTED RIGHTS LEGEND
  
 Use, reproduction and disclosure by the US Government is
 subject to restrictions as set forth in subparagraphs (a)
 and (c) of the Commercial Computer Software - Restricted
 Rights clause in FAR 52.227-19.
  
 Gaussian, Inc.
 340 Quinnipiac St., Bldg. 40, Wallingford CT 06492
  
  
 ---------------------------------------------------------------
 Warning -- This program may not be used in any manner that
 competes with the business of Gaussian, Inc. or will provide
 assistance to any competitor of Gaussian, Inc.  The licensee
 of this program is prohibited from giving any competitor of
 Gaussian, Inc. access to this program.  By using this program,
 the user acknowledges that Gaussian, Inc. is engaged in the
 business of creating and licensing software in the field of
 computational chemistry and represents and warrants to the
 licensee that it is not a competitor of Gaussian, Inc. and that
 it will not use this program in any manner prohibited above.
 ---------------------------------------------------------------
  

 Cite this work as:
 Gaussian 16, Revision C.01,
 M. J. Frisch, G. W. Trucks, H. B. Schlegel, G. E. Scuseria, 
 M. A. Robb, J. R. Cheeseman, G. Scalmani, V. Barone, 
 G. A. Petersson, H. Nakatsuji, X. Li, M. Caricato, A. V. Marenich, 
 J. Bloino, B. G. Janesko, R. Gomperts, B. Mennucci, H. P. Hratchian, 
 J. V. Ortiz, A. F. Izmaylov, J. L. Sonnenberg, D. Williams-Young, 
 F. Ding, F. Lipparini, F. Egidi, J. Goings, B. Peng, A. Petrone, 
 T. Henderson, D. Ranasinghe, V. G. Zakrzewski, J. Gao, N. Rega, 
 G. Zheng, W. Liang, M. Hada, M. Ehara, K. Toyota, R. Fukuda, 
 J. Hasegawa, M. Ishida, T. Nakajima, Y. Honda, O. Kitao, H. Nakai, 
 T. Vreven, K. Throssell, J. A. Montgomery, Jr., J. E. Peralta, 
 F. Ogliaro, M. J. Bearpark, J. J. Heyd, E. N. Brothers, K. N. Kudin, 
 V. N. Staroverov, T. A. Keith, R. Kobayashi, J. Normand, 
 K. Raghavachari, A. P. Rendell, J. C. Burant, S. S. Iyengar, 
 J. Tomasi, M. Cossi, J. M. Millam, M. Klene, C. Adamo, R. Cammi, 
 J. W. Ochterski, R. L. Martin, K. Morokuma, O. Farkas, 
 J. B. Foresman, and D. J. Fox, Gaussian, Inc., Wallingford CT, 2019.
 
 ******************************************
 Gaussian 16:  ES64L-G16RevC.01  3-Jul-2019
                19-Jun-2024 
 ******************************************
 %mem=12000MB
 %nprocshared=8
 Will use up to    8 processors via shared memory.
 %chk=ammonium19.chk
 ----------------------------------------------------------------------
 #P HF/aug-cc-pvtz Opt=(Redundant, calcall, verytight) symm=(loose,foll
 ow) Pop=(MK,Hirshfeld,ReadRadii) iop(6/33=2) iop(6/42=6) Polar Freq ma
 xdisk=128GB
 ----------------------------------------------------------------------
 1/7=1,10=4,18=20,19=15,38=1/1,3;
 2/9=110,12=2,17=4,18=3,40=1/2;
 3/5=16,6=1,7=10,11=9,25=1,30=1,71=2,140=1/1,2,3;
 4//1;
 5/5=2,38=5,98=1/2;
 8/6=4,10=90,11=11/1;
 11/6=1,8=1,9=11,15=111,16=1/1,2,10;
 10/6=1/2;
 6/7=2,8=2,9=2,10=2,15=8,18=1,20=101,28=1,33=2,42=6,79=1/1,2;
 7/10=1,25=1/1,2,3,16;
 1/7=1,10=4,18=20,19=15/3(3);
 2/9=110,15=5/2;
 7/8=1,9=1,25=1,44=-1/16;
 99//99;
 2/9=110,15=5/2;
 3/5=16,6=1,7=10,11=9,25=1,30=1,71=2,140=1/1,2,3;
 4/5=5,16=3,69=1/1;
 5/5=2,38=5,98=1/2;
 8/6=4,10=90,11=11/1;
 11/6=1,8=1,9=11,15=111,16=1/1,2,10;
 10/6=1/2;
 7/10=1,25=1/1,2,3,16;
 1/7=1,10=4,18=20,19=15/3(-8);
 2/9=110,15=5/2;
 6/7=2,8=2,9=2,10=2,15=8,18=1,19=2,20=101,28=1,33=2,42=6,79=1/1,2;
 7/8=1,9=1,25=1,44=-1/16;
 99//99;
 Leave Link    1 at Wed Jun 19 08:44:05 2024, MaxMem=  1572864000 cpu:               1.4 elap:               0.2
 (Enter /software/sse/easybuild/prefix/software/Gaussian/16.C.01-avx2-nsc1/g16/l101.exe)
 --------
 ammonium
 --------
 Symbolic Z-matrix:
 Charge =  1 Multiplicity = 1
 H                     0.59255   0.59255   0.59255 
 N                     0.        0.        0. 
 H                    -0.59255  -0.59255   0.59255 
 H                    -0.59255   0.59255  -0.59255 
 H                     0.59255  -0.59255  -0.59255 
 
 ITRead=  0  0  0  0  0
 MicOpt= -1 -1 -1 -1 -1
 NAtoms=      5 NQM=        5 NQMF=       0 NMMI=      0 NMMIF=      0
                NMic=       0 NMicF=      0.
                    Isotopes and Nuclear Properties:
 (Nuclear quadrupole moments (NQMom) in fm**2, nuclear magnetic moments (NMagM)
  in nuclear magnetons)

  Atom         1           2           3           4           5
 IAtWgt=           1          14           1           1           1
 AtmWgt=   1.0078250  14.0030740   1.0078250   1.0078250   1.0078250
 NucSpn=           1           2           1           1           1
 AtZEff=  -0.0000000  -0.0000000  -0.0000000  -0.0000000  -0.0000000
 NQMom=    0.0000000   2.0440000   0.0000000   0.0000000   0.0000000
 NMagM=    2.7928460   0.4037610   2.7928460   2.7928460   2.7928460
 AtZNuc=   1.0000000   7.0000000   1.0000000   1.0000000   1.0000000
 Leave Link  101 at Wed Jun 19 08:44:06 2024, MaxMem=  1572864000 cpu:               1.9 elap:               0.3
 (Enter /software/sse/easybuild/prefix/software/Gaussian/16.C.01-avx2-nsc1/g16/l103.exe)

 GradGradGradGradGradGradGradGradGradGradGradGradGradGradGradGradGradGrad
 Berny optimization.
 Initialization pass.
                           ----------------------------
                           !    Initial Parameters    !
                           ! (Angstroms and Degrees)  !
 --------------------------                            --------------------------
 ! Name  Definition              Value          Derivative Info.                !
 --------------------------------------------------------------------------------
 ! R1    R(1,2)                  1.0263         calculate D2E/DX2 analytically  !
 ! R2    R(2,3)                  1.0263         calculate D2E/DX2 analytically  !
 ! R3    R(2,4)                  1.0263         calculate D2E/DX2 analytically  !
 ! R4    R(2,5)                  1.0263         calculate D2E/DX2 analytically  !
 ! A1    A(1,2,3)              109.4712         calculate D2E/DX2 analytically  !
 ! A2    A(1,2,4)              109.4712         calculate D2E/DX2 analytically  !
 ! A3    A(1,2,5)              109.4712         calculate D2E/DX2 analytically  !
 ! A4    A(3,2,4)              109.4712         calculate D2E/DX2 analytically  !
 ! A5    A(3,2,5)              109.4712         calculate D2E/DX2 analytically  !
 ! A6    A(4,2,5)              109.4712         calculate D2E/DX2 analytically  !
 ! D1    D(3,2,5,4)            120.0            calculate D2E/DX2 analytically  !
 --------------------------------------------------------------------------------
 Trust Radius=3.00D-01 FncErr=1.00D-07 GrdErr=1.00D-07 EigMax=2.50D+02 EigMin=1.00D-04
 Number of steps in this run=     21 maximum allowed number of steps=    100.
 GradGradGradGradGradGradGradGradGradGradGradGradGradGradGradGradGradGrad

 Leave Link  103 at Wed Jun 19 08:44:06 2024, MaxMem=  1572864000 cpu:               0.1 elap:               0.0
 (Enter /software/sse/easybuild/prefix/software/Gaussian/16.C.01-avx2-nsc1/g16/l202.exe)
                          Input orientation:                          
 ---------------------------------------------------------------------
 Center     Atomic      Atomic             Coordinates (Angstroms)
 Number     Number       Type             X           Y           Z
 ---------------------------------------------------------------------
      1          1           0        0.592548    0.592548    0.592548
      2          7           0        0.000000    0.000000    0.000000
      3          1           0       -0.592548   -0.592548    0.592548
      4          1           0       -0.592548    0.592548   -0.592548
      5          1           0        0.592548   -0.592548   -0.592548
 ---------------------------------------------------------------------
                    Distance matrix (angstroms):
                    1          2          3          4          5
     1  H    0.000000
     2  N    1.026323   0.000000
     3  H    1.675979   1.026323   0.000000
     4  H    1.675979   1.026323   1.675979   0.000000
     5  H    1.675979   1.026323   1.675979   1.675979   0.000000
 Stoichiometry    H4N(1+)
 Framework group  TD[O(N),4C3(H)]
 Deg. of freedom     1
 Full point group                 TD      NOp  24
 Largest Abelian subgroup         D2      NOp   4
 Largest concise Abelian subgroup D2      NOp   4
                         Standard orientation:                         
 ---------------------------------------------------------------------
 Center     Atomic      Atomic             Coordinates (Angstroms)
 Number     Number       Type             X           Y           Z
 ---------------------------------------------------------------------
      1          1           0        0.592548    0.592548    0.592548
      2          7           0        0.000000    0.000000    0.000000
      3          1           0       -0.592548   -0.592548    0.592548
      4          1           0       -0.592548    0.592548   -0.592548
      5          1           0        0.592548   -0.592548   -0.592548
 ---------------------------------------------------------------------
 Rotational constants (GHZ):         178.5233370         178.5233370         178.5233370
 Leave Link  202 at Wed Jun 19 08:44:07 2024, MaxMem=  1572864000 cpu:               0.1 elap:               0.0
 (Enter /software/sse/easybuild/prefix/software/Gaussian/16.C.01-avx2-nsc1/g16/l301.exe)
 Standard basis: Aug-CC-pVTZ (5D, 7F)
 Ernie: Thresh=  0.10000D-02 Tol=  0.10000D-05 Strict=F.
 Ernie:  3 primitive shells out of 74 were deleted.
 There are    41 symmetry adapted cartesian basis functions of A   symmetry.
 There are    38 symmetry adapted cartesian basis functions of B1  symmetry.
 There are    38 symmetry adapted cartesian basis functions of B2  symmetry.
 There are    38 symmetry adapted cartesian basis functions of B3  symmetry.
 There are    36 symmetry adapted basis functions of A   symmetry.
 There are    34 symmetry adapted basis functions of B1  symmetry.
 There are    34 symmetry adapted basis functions of B2  symmetry.
 There are    34 symmetry adapted basis functions of B3  symmetry.
   138 basis functions,   180 primitive gaussians,   155 cartesian basis functions
     5 alpha electrons        5 beta electrons
       nuclear repulsion energy        16.3313880525 Hartrees.
 IExCor=    0 DFT=F Ex=HF Corr=None ExCW=0 ScaHFX=  1.000000
 ScaDFX=  1.000000  1.000000  1.000000  1.000000 ScalE2=  1.000000  1.000000
 IRadAn=      5 IRanWt=     -1 IRanGd=            0 ICorTp=0 IEmpDi=  4
 NAtoms=    5 NActive=    5 NUniq=    2 SFac= 4.00D+00 NAtFMM=   60 NAOKFM=F Big=F
 Integral buffers will be    131072 words long.
 Raffenetti 1 integral format.
 Two-electron integral symmetry is turned on.
 Leave Link  301 at Wed Jun 19 08:44:07 2024, MaxMem=  1572864000 cpu:               0.5 elap:               0.1
 (Enter /software/sse/easybuild/prefix/software/Gaussian/16.C.01-avx2-nsc1/g16/l302.exe)
 NPDir=0 NMtPBC=     1 NCelOv=     1 NCel=       1 NClECP=     1 NCelD=      1
         NCelK=      1 NCelE2=     1 NClLst=     1 CellRange=     0.0.
 One-electron integrals computed using PRISM.
 One-electron integral symmetry used in STVInt
 NBasis=   138 RedAO= T EigKep=  1.01D-04  NBF=    36    34    34    34
 NBsUse=   138 1.00D-06 EigRej= -1.00D+00 NBFU=    36    34    34    34
 Leave Link  302 at Wed Jun 19 08:44:08 2024, MaxMem=  1572864000 cpu:               1.0 elap:               0.1
 (Enter /software/sse/easybuild/prefix/software/Gaussian/16.C.01-avx2-nsc1/g16/l303.exe)
 DipDrv:  MaxL=1.
 Leave Link  303 at Wed Jun 19 08:44:08 2024, MaxMem=  1572864000 cpu:               0.2 elap:               0.0
 (Enter /software/sse/easybuild/prefix/software/Gaussian/16.C.01-avx2-nsc1/g16/l401.exe)
 ExpMin= 2.53D-02 ExpMax= 1.14D+04 ExpMxC= 3.89D+02 IAcc=3 IRadAn=         5 AccDes= 0.00D+00
 Harris functional with IExCor=  205 and IRadAn=       5 diagonalized for initial guess.
 HarFok:  IExCor=  205 AccDes= 0.00D+00 IRadAn=         5 IDoV= 1 UseB2=F ITyADJ=14
 ICtDFT=  3500011 ScaDFX=  1.000000  1.000000  1.000000  1.000000
 FoFCou: FMM=F IPFlag=           0 FMFlag=      100000 FMFlg1=           0
         NFxFlg=           0 DoJE=T BraDBF=F KetDBF=T FulRan=T
         wScrn=  0.000000 ICntrl=       500 IOpCl=  0 I1Cent=   200000004 NGrid=           0
         NMat0=    1 NMatS0=      1 NMatT0=    0 NMatD0=    1 NMtDS0=    0 NMtDT0=    0
 Petite list used in FoFCou.
 Harris En= -56.7463554295195    
 JPrj=0 DoOrth=F DoCkMO=F.
 Initial guess orbital symmetries:
       Occupied  (A1) (A1) (T2) (T2) (T2)
       Virtual   (A1) (T2) (T2) (T2) (A1) (T2) (T2) (T2) (T2) (T2)
                 (T2) (E) (E) (A1) (T2) (T2) (T2) (T1) (T1) (T1)
                 (T2) (T2) (T2) (A1) (E) (E) (T2) (T2) (T2) (T2)
                 (T2) (T2) (A1) (T2) (T2) (T2) (T1) (T1) (T1) (A1)
                 (T2) (T2) (T2) (E) (E) (T1) (T1) (T1) (T2) (T2)
                 (T2) (E) (E) (T2) (T2) (T2) (A1) (E) (E) (T1)
                 (T1) (T1) (T2) (T2) (T2) (T2) (T2) (T2) (T2) (T2)
                 (T2) (A1) (T1) (T1) (T1) (E) (E) (T2) (T2) (T2)
                 (A1) (A1) (T2) (T2) (T2) (E) (E) (T1) (T1) (T1)
                 (T1) (T1) (T1) (T2) (T2) (T2) (T2) (T2) (T2) (E)
                 (E) (A1) (T2) (T2) (T2) (T2) (T2) (T2) (T1) (T1)
                 (T1) (T2) (T2) (T2) (A1) (E) (E) (T2) (T2) (T2)
                 (E) (E) (T1) (T1) (T1) (A1) (T2) (T2) (T2) (T2)
                 (T2) (T2) (A1)
 The electronic state of the initial guess is 1-A1.
 Leave Link  401 at Wed Jun 19 08:44:09 2024, MaxMem=  1572864000 cpu:               1.5 elap:               0.2
 (Enter /software/sse/easybuild/prefix/software/Gaussian/16.C.01-avx2-nsc1/g16/l502.exe)
 Keep R1 ints in memory in symmetry-blocked form, NReq=57528360.
 FoFCou: FMM=F IPFlag=           0 FMFlag=           0 FMFlg1=           0
         NFxFlg=           0 DoJE=F BraDBF=F KetDBF=F FulRan=T
         wScrn=  0.000000 ICntrl=       600 IOpCl=  0 I1Cent=           0 NGrid=           0
         NMat0=    1 NMatS0=   9591 NMatT0=    0 NMatD0=    1 NMtDS0=    0 NMtDT0=    0
 Petite list used in FoFCou.
 Closed shell SCF:
 Using DIIS extrapolation, IDIIS=  1040.
 NGot=  1572864000 LenX=  1561284215 LenY=  1561259749
 Requested convergence on RMS density matrix=1.00D-08 within 128 cycles.
 Requested convergence on MAX density matrix=1.00D-06.
 Requested convergence on             energy=1.00D-06.
 No special actions if energy rises.

 Cycle   1  Pass 1  IDiag  1:
 E= -56.5177804259161    
 DIIS: error= 5.19D-02 at cycle   1 NSaved=   1.
 NSaved= 1 IEnMin= 1 EnMin= -56.5177804259161     IErMin= 1 ErrMin= 5.19D-02
 ErrMax= 5.19D-02  0.00D+00 EMaxC= 1.00D-01 BMatC= 1.26D-01 BMatP= 1.26D-01
 IDIUse=3 WtCom= 4.81D-01 WtEn= 5.19D-01
 Coeff-Com:  0.100D+01
 Coeff-En:   0.100D+01
 Coeff:      0.100D+01
 Gap=     0.804 Goal=   None    Shift=    0.000
 GapD=    0.804 DampG=2.000 DampE=0.500 DampFc=1.0000 IDamp=-1.
 RMSDP=1.17D-03 MaxDP=4.69D-02              OVMax= 6.63D-02

 Cycle   2  Pass 1  IDiag  1:
 E= -56.5559128078192     Delta-E=       -0.038132381903 Rises=F Damp=F
 DIIS: error= 1.23D-02 at cycle   2 NSaved=   2.
 NSaved= 2 IEnMin= 2 EnMin= -56.5559128078192     IErMin= 2 ErrMin= 1.23D-02
 ErrMax= 1.23D-02  0.00D+00 EMaxC= 1.00D-01 BMatC= 1.16D-02 BMatP= 1.26D-01
 IDIUse=3 WtCom= 8.77D-01 WtEn= 1.23D-01
 Coeff-Com:  0.149D+00 0.851D+00
 Coeff-En:   0.000D+00 0.100D+01
 Coeff:      0.131D+00 0.869D+00
 Gap=     0.870 Goal=   None    Shift=    0.000
 RMSDP=4.26D-04 MaxDP=1.70D-02 DE=-3.81D-02 OVMax= 2.92D-02

 Cycle   3  Pass 1  IDiag  1:
 E= -56.5631904497259     Delta-E=       -0.007277641907 Rises=F Damp=F
 DIIS: error= 4.22D-03 at cycle   3 NSaved=   3.
 NSaved= 3 IEnMin= 3 EnMin= -56.5631904497259     IErMin= 3 ErrMin= 4.22D-03
 ErrMax= 4.22D-03  0.00D+00 EMaxC= 1.00D-01 BMatC= 1.04D-03 BMatP= 1.16D-02
 IDIUse=3 WtCom= 9.58D-01 WtEn= 4.22D-02
 Coeff-Com: -0.288D-01 0.194D+00 0.834D+00
 Coeff-En:   0.000D+00 0.000D+00 0.100D+01
 Coeff:     -0.276D-01 0.186D+00 0.841D+00
 Gap=     0.850 Goal=   None    Shift=    0.000
 RMSDP=8.73D-05 MaxDP=2.95D-03 DE=-7.28D-03 OVMax= 7.30D-03

 Cycle   4  Pass 1  IDiag  1:
 E= -56.5639406832729     Delta-E=       -0.000750233547 Rises=F Damp=F
 DIIS: error= 3.47D-04 at cycle   4 NSaved=   4.
 NSaved= 4 IEnMin= 4 EnMin= -56.5639406832729     IErMin= 4 ErrMin= 3.47D-04
 ErrMax= 3.47D-04  0.00D+00 EMaxC= 1.00D-01 BMatC= 4.87D-06 BMatP= 1.04D-03
 IDIUse=3 WtCom= 9.97D-01 WtEn= 3.47D-03
 Coeff-Com:  0.722D-02-0.685D-01-0.235D+00 0.130D+01
 Coeff-En:   0.000D+00 0.000D+00 0.000D+00 0.100D+01
 Coeff:      0.719D-02-0.683D-01-0.234D+00 0.130D+01
 Gap=     0.850 Goal=   None    Shift=    0.000
 RMSDP=1.23D-05 MaxDP=3.50D-04 DE=-7.50D-04 OVMax= 1.07D-03

 Cycle   5  Pass 1  IDiag  1:
 E= -56.5639491829525     Delta-E=       -0.000008499680 Rises=F Damp=F
 DIIS: error= 4.59D-05 at cycle   5 NSaved=   5.
 NSaved= 5 IEnMin= 5 EnMin= -56.5639491829525     IErMin= 5 ErrMin= 4.59D-05
 ErrMax= 4.59D-05  0.00D+00 EMaxC= 1.00D-01 BMatC= 1.13D-07 BMatP= 4.87D-06
 IDIUse=1 WtCom= 1.00D+00 WtEn= 0.00D+00
 Coeff-Com: -0.570D-03 0.665D-02 0.275D-01-0.242D+00 0.121D+01
 Coeff:     -0.570D-03 0.665D-02 0.275D-01-0.242D+00 0.121D+01
 Gap=     0.850 Goal=   None    Shift=    0.000
 RMSDP=1.42D-06 MaxDP=7.28D-05 DE=-8.50D-06 OVMax= 1.53D-04

 Cycle   6  Pass 1  IDiag  1:
 E= -56.5639493444299     Delta-E=       -0.000000161477 Rises=F Damp=F
 DIIS: error= 2.85D-06 at cycle   6 NSaved=   6.
 NSaved= 6 IEnMin= 6 EnMin= -56.5639493444299     IErMin= 6 ErrMin= 2.85D-06
 ErrMax= 2.85D-06  0.00D+00 EMaxC= 1.00D-01 BMatC= 4.42D-10 BMatP= 1.13D-07
 IDIUse=1 WtCom= 1.00D+00 WtEn= 0.00D+00
 Coeff-Com:  0.404D-04-0.659D-03-0.313D-02 0.350D-01-0.240D+00 0.121D+01
 Coeff:      0.404D-04-0.659D-03-0.313D-02 0.350D-01-0.240D+00 0.121D+01
 Gap=     0.850 Goal=   None    Shift=    0.000
 RMSDP=2.54D-07 MaxDP=9.49D-06 DE=-1.61D-07 OVMax= 1.27D-05

 Cycle   7  Pass 1  IDiag  1:
 E= -56.5639493453247     Delta-E=       -0.000000000895 Rises=F Damp=F
 DIIS: error= 1.46D-07 at cycle   7 NSaved=   7.
 NSaved= 7 IEnMin= 7 EnMin= -56.5639493453247     IErMin= 7 ErrMin= 1.46D-07
 ErrMax= 1.46D-07  0.00D+00 EMaxC= 1.00D-01 BMatC= 1.13D-12 BMatP= 4.42D-10
 IDIUse=1 WtCom= 1.00D+00 WtEn= 0.00D+00
 Coeff-Com: -0.132D-05 0.346D-04 0.209D-03-0.260D-02 0.198D-01-0.126D+00
 Coeff-Com:  0.111D+01
 Coeff:     -0.132D-05 0.346D-04 0.209D-03-0.260D-02 0.198D-01-0.126D+00
 Coeff:      0.111D+01
 Gap=     0.850 Goal=   None    Shift=    0.000
 RMSDP=1.57D-08 MaxDP=8.81D-07 DE=-8.95D-10 OVMax= 4.44D-07

 Cycle   8  Pass 1  IDiag  1:
 E= -56.5639493453267     Delta-E=       -0.000000000002 Rises=F Damp=F
 DIIS: error= 9.74D-09 at cycle   8 NSaved=   8.
 NSaved= 8 IEnMin= 8 EnMin= -56.5639493453267     IErMin= 8 ErrMin= 9.74D-09
 ErrMax= 9.74D-09  0.00D+00 EMaxC= 1.00D-01 BMatC= 5.13D-15 BMatP= 1.13D-12
 IDIUse=1 WtCom= 1.00D+00 WtEn= 0.00D+00
 Coeff-Com: -0.522D-07-0.661D-06-0.100D-04 0.135D-03-0.115D-02 0.864D-02
 Coeff-Com: -0.127D+00 0.112D+01
 Coeff:     -0.522D-07-0.661D-06-0.100D-04 0.135D-03-0.115D-02 0.864D-02
 Coeff:     -0.127D+00 0.112D+01
 Gap=     0.850 Goal=   None    Shift=    0.000
 RMSDP=1.30D-09 MaxDP=2.04D-08 DE=-1.96D-12 OVMax= 2.96D-08

 SCF Done:  E(RHF) =  -56.5639493453     A.U. after    8 cycles
            NFock=  8  Conv=0.13D-08     -V/T= 2.0024
 KE= 5.642699618586D+01 PE=-1.612646178925D+02 EE= 3.194228430883D+01
 Leave Link  502 at Wed Jun 19 08:44:10 2024, MaxMem=  1572864000 cpu:               5.6 elap:               0.8
 (Enter /software/sse/easybuild/prefix/software/Gaussian/16.C.01-avx2-nsc1/g16/l801.exe)
 Range of M.O.s used for correlation:     1   138
 NBasis=   138 NAE=     5 NBE=     5 NFC=     0 NFV=     0
 NROrb=    138 NOA=     5 NOB=     5 NVA=   133 NVB=   133

 **** Warning!!: The largest alpha MO coefficient is  0.45979128D+02

 Leave Link  801 at Wed Jun 19 08:44:10 2024, MaxMem=  1572864000 cpu:               0.3 elap:               0.1
 (Enter /software/sse/easybuild/prefix/software/Gaussian/16.C.01-avx2-nsc1/g16/l1101.exe)
 Using compressed storage, NAtomX=     5.
 Will process      6 centers per pass.
 Leave Link 1101 at Wed Jun 19 08:44:11 2024, MaxMem=  1572864000 cpu:               0.9 elap:               0.1
 (Enter /software/sse/easybuild/prefix/software/Gaussian/16.C.01-avx2-nsc1/g16/l1102.exe)
 Symmetrizing basis deriv contribution to polar:
 IMax=3 JMax=2 DiffMx= 0.00D+00
 Leave Link 1102 at Wed Jun 19 08:44:11 2024, MaxMem=  1572864000 cpu:               0.2 elap:               0.0
 (Enter /software/sse/easybuild/prefix/software/Gaussian/16.C.01-avx2-nsc1/g16/l1110.exe)
 Forming Gx(P) for the SCF density, NAtomX=     5.
 Integral derivatives from FoFJK, PRISM(SPDF).
 Do as many integral derivatives as possible in FoFJK.
 G2DrvN: MDV=    1572863349.
 G2DrvN: will do     6 centers at a time, making    1 passes.
 Calling FoFCou, ICntrl=  3107 FMM=F I1Cent=   0 AccDes= 0.00D+00.
 FoFJK:  IHMeth= 1 ICntrl=    3107 DoSepK=F KAlg= 0 I1Cent=           0 FoldK=F
 IRaf=         0 NMat=       1 IRICut=       1 DoRegI=T DoRafI=F ISym2E= 1 IDoP0=0 IntGTp=1.
 FoFCou: FMM=F IPFlag=           0 FMFlag=      100000 FMFlg1=           0
         NFxFlg=           0 DoJE=F BraDBF=F KetDBF=F FulRan=T
         wScrn=  0.000000 ICntrl=      3107 IOpCl=  0 I1Cent=           0 NGrid=           0
         NMat0=    1 NMatS0=      1 NMatT0=    0 NMatD0=    1 NMtDS0=    0 NMtDT0=    0
 Petite list used in FoFCou.
 End of G2Drv F.D. properties file   721 does not exist.
 End of G2Drv F.D. properties file   722 does not exist.
 End of G2Drv F.D. properties file   788 does not exist.
 Leave Link 1110 at Wed Jun 19 08:44:12 2024, MaxMem=  1572864000 cpu:               4.0 elap:               0.5
 (Enter /software/sse/easybuild/prefix/software/Gaussian/16.C.01-avx2-nsc1/g16/l1002.exe)
 Minotr:  Closed shell wavefunction.
          IDoAtm=11111
          Direct CPHF calculation.
          Differentiating once with respect to electric field.
                with respect to dipole field.
          Differentiating once with respect to nuclear coordinates.
          Using symmetry in CPHF.
          Requested convergence is 1.0D-08 RMS, and 1.0D-07 maximum.
          Secondary convergence is 1.0D-12 RMS, and 1.0D-12 maximum.
          NewPWx=T KeepS1=F KeepF1=F KeepIn=T MapXYZ=F SortEE=F KeepMc=T.
 Keep R1 ints in memory in symmetry-blocked form, NReq=57529513.
 FoFCou: FMM=F IPFlag=           0 FMFlag=           0 FMFlg1=           0
         NFxFlg=           0 DoJE=F BraDBF=F KetDBF=F FulRan=T
         wScrn=  0.000000 ICntrl=       600 IOpCl=  0 I1Cent=           0 NGrid=           0
         NMat0=    1 NMatS0=   9591 NMatT0=    0 NMatD0=    1 NMtDS0=    0 NMtDT0=    0
 Petite list used in FoFCou.
          MDV=    1572864000 using IRadAn=       1.
          Solving linear equations simultaneously, MaxMat=       0.
          There are     9 degrees of freedom in the 1st order CPHF.  IDoFFX=4 NUNeed=     9.
      9 vectors produced by pass  0 Test12= 7.39D-15 1.11D-08 XBig12= 1.74D+00 4.34D-01.
 AX will form     9 AO Fock derivatives at one time.
      9 vectors produced by pass  1 Test12= 7.39D-15 1.11D-08 XBig12= 2.56D-02 5.52D-02.
      9 vectors produced by pass  2 Test12= 7.39D-15 1.11D-08 XBig12= 1.99D-04 5.34D-03.
      9 vectors produced by pass  3 Test12= 7.39D-15 1.11D-08 XBig12= 2.12D-06 6.14D-04.
      9 vectors produced by pass  4 Test12= 7.39D-15 1.11D-08 XBig12= 9.80D-09 2.84D-05.
      9 vectors produced by pass  5 Test12= 7.39D-15 1.11D-08 XBig12= 2.20D-11 1.30D-06.
      6 vectors produced by pass  6 Test12= 7.39D-15 1.11D-08 XBig12= 1.06D-13 1.14D-07.
 InvSVY:  IOpt=1 It=  1 EMax= 2.22D-16
 Solved reduced A of dimension    60 with     9 vectors.
 FullF1:  Do perturbations      1 to       9.
 Isotropic polarizability for W=    0.000000        8.96 Bohr**3.
 End of Minotr F.D. properties file   721 does not exist.
 End of Minotr F.D. properties file   722 does not exist.
 End of Minotr F.D. properties file   788 does not exist.
 Leave Link 1002 at Wed Jun 19 08:44:13 2024, MaxMem=  1572864000 cpu:               6.4 elap:               0.8
 (Enter /software/sse/easybuild/prefix/software/Gaussian/16.C.01-avx2-nsc1/g16/l601.exe)
 Copying SCF densities to generalized density rwf, IOpCl= 0 IROHF=0.
 SCF density gives NOpUse= 24 NOpAll= 24.

 **********************************************************************

            Population analysis using the SCF Density.

 **********************************************************************

 Orbital symmetries:
 BldTbl:  Degeneracy threshold= 1.00D-02
       Occupied  (A1) (A1) (T2) (T2) (T2)
       Virtual   (A1) (T2) (T2) (T2) (A1) (T2) (T2) (T2) (T2) (T2)
                 (T2) (E) (E) (A1) (T1) (T1) (T1) (T2) (T2) (T2)
                 (A1) (T2) (T2) (T2) (T2) (T2) (T2) (E) (E) (T2)
                 (T2) (T2) (A1) (T1) (T1) (T1) (T2) (T2) (T2) (A1)
                 (T2) (T2) (T2) (E) (E) (T1) (T1) (T1) (T2) (T2)
                 (T2) (E) (E) (T2) (T2) (T2) (A1) (E) (E) (T1)
                 (T1) (T1) (T2) (T2) (T2) (T2) (T2) (T2) (T2) (T2)
                 (T2) (A1) (T1) (T1) (T1) (E) (E) (T2) (T2) (T2)
                 (A1) (A1) (T2) (T2) (T2) (E) (E) (T1) (T1) (T1)
                 (T1) (T1) (T1) (T2) (T2) (T2) (T2) (T2) (T2) (E)
                 (E) (A1) (T2) (T2) (T2) (T2) (T2) (T2) (T1) (T1)
                 (T1) (T2) (T2) (T2) (A1) (E) (E) (T2) (T2) (T2)
                 (E) (E) (T1) (T1) (T1) (A1) (T2) (T2) (T2) (T2)
                 (T2) (T2) (A1)
 The electronic state is 1-A1.
 Alpha  occ. eigenvalues --  -15.94020  -1.54412  -0.99741  -0.99741  -0.99741
 Alpha virt. eigenvalues --   -0.14728  -0.09131  -0.09131  -0.09131  -0.02831
 Alpha virt. eigenvalues --   -0.01808  -0.01808  -0.01808   0.00989   0.00989
 Alpha virt. eigenvalues --    0.00989   0.02090   0.02090   0.14648   0.16592
 Alpha virt. eigenvalues --    0.16592   0.16592   0.18209   0.18209   0.18209
 Alpha virt. eigenvalues --    0.20069   0.22328   0.22328   0.22328   0.32632
 Alpha virt. eigenvalues --    0.32632   0.32632   0.33096   0.33096   0.48610
 Alpha virt. eigenvalues --    0.48610   0.48610   0.59171   0.66204   0.66204
 Alpha virt. eigenvalues --    0.66204   0.67044   0.67044   0.67044   0.72806
 Alpha virt. eigenvalues --    0.74418   0.74418   0.74418   0.81973   0.81973
 Alpha virt. eigenvalues --    0.82352   0.82352   0.82352   0.95981   0.95981
 Alpha virt. eigenvalues --    0.95981   0.99441   0.99441   1.09108   1.09108
 Alpha virt. eigenvalues --    1.09108   1.13800   1.14949   1.14949   1.44536
 Alpha virt. eigenvalues --    1.44536   1.44536   1.52085   1.52085   1.52085
 Alpha virt. eigenvalues --    1.60374   1.60374   1.60374   1.74535   1.74535
 Alpha virt. eigenvalues --    1.74535   1.84036   2.04292   2.04292   2.04292
 Alpha virt. eigenvalues --    2.10631   2.10631   2.14071   2.14071   2.14071
 Alpha virt. eigenvalues --    2.14604   3.23092   3.50738   3.50738   3.50738
 Alpha virt. eigenvalues --    3.58838   3.58838   3.82134   3.82134   3.82134
 Alpha virt. eigenvalues --    3.87773   3.87773   3.87773   4.03149   4.03149
 Alpha virt. eigenvalues --    4.03149   4.11184   4.11184   4.11184   4.16244
 Alpha virt. eigenvalues --    4.16244   4.23029   4.31737   4.31737   4.31737
 Alpha virt. eigenvalues --    4.51470   4.51470   4.51470   4.59697   4.59697
 Alpha virt. eigenvalues --    4.59697   4.66476   4.66476   4.66476   5.04502
 Alpha virt. eigenvalues --    5.31214   5.31214   5.42606   5.42606   5.42606
 Alpha virt. eigenvalues --    5.74217   5.74217   6.11160   6.11160   6.11160
 Alpha virt. eigenvalues --    6.35536   6.77072   6.77072   6.77072   7.39144
 Alpha virt. eigenvalues --    7.39144   7.39144  18.30006
          Condensed to atoms (all electrons):
               1          2          3          4          5
     1  H    0.367614   0.383115   0.000764   0.000764   0.000764
     2  N    0.383115   5.455462   0.383115   0.383115   0.383115
     3  H    0.000764   0.383115   0.367614   0.000764   0.000764
     4  H    0.000764   0.383115   0.000764   0.367614   0.000764
     5  H    0.000764   0.383115   0.000764   0.000764   0.367614
 Mulliken charges:
               1
     1  H    0.246980
     2  N    0.012079
     3  H    0.246980
     4  H    0.246980
     5  H    0.246980
 Sum of Mulliken charges =   1.00000
 Mulliken charges with hydrogens summed into heavy atoms:
               1
     2  N    1.000000
 APT charges:
               1
     1  H    0.314703
     2  N   -0.258811
     3  H    0.314703
     4  H    0.314703
     5  H    0.314703
 Sum of APT charges =   1.00000
 APT charges with hydrogens summed into heavy atoms:
               1
     2  N    1.000000
 DipInt: DoE/N= T F RetVal/Mat= T F Init=T NMatP=  1 IDeriv=0 Min/MaxMlt=  0  4
 Entering OneElI...
 OneElI was handed  1572800212 working-precision words.
 Multipole integrals L=0 to 4 MinM= 0 MaxM= 0.
 Requested accuracy = 0.1000D-12
 ShPair: Thresh= 1.00D-13 NBox=     0 BxSize= 0.00D+00 RnKept= 3.17D+00
         NSMCal=                 1275 NSMKep=                1275
 PrmmSu-InSpLW:  IPartL=    0 NPrtUS=    1 NPrtUL=    1 DoSpLW=F IThBeg=    0 IThEnd=    0 NThAct=    1.
 PrSmSu:  IncTry=   512 NBBP=           1275 NTPThr=   100 NPartT=    1 Incr=          12 LDynOK=F GPUOK=F.
 PrsmSu:  NPrtUS=   1 ThrOK=F IAlg=2 LenDen=           0 ISkipM=0 DoSpLW=F IThBeg=    0 IThEnd=    0.
 Prism:   IPart=     0 DynPar=F LinDyn=F Incr=          12.
 PRISM was handed  1572716601 working-precision words and  1275 shell-pairs
 IPart=  0 NShTot=        1275 NBatch=          36 AvBLen=        35.4
 PrsmSu-ThDecC:  IPartSL=    0    0 NPrtUSL=    1    1 IThBeg=    0 IThEnd=    0 CPU=   -1 GPU=   -1 NThAct=    1.
 PrSmSu:  NxtVal=             13.
 Electronic moments (au):
        -10.00000000         -0.00000000         -0.00000000         -0.00000000
         -8.19732177         -8.19732177         -8.19732177          0.00000000
         -0.00000000          0.00000000         -0.00000000         -0.00000000
         -0.00000000         -0.00000000         -0.00000000         -0.00000000
          0.00000000         -0.00000000          0.00000000         -2.97360700
        -25.70060816        -25.70060816        -25.70060816         -0.00000000
         -0.00000000          0.00000000         -0.00000000         -0.00000000
          0.00000000        -10.32682810        -10.32682810        -10.32682810
         -0.00000000         -0.00000000          0.00000000
 Electronic spatial extent (au):  <R**2>=             24.5920
 DipInt: DoE/N= F T RetVal/Mat= T F Init=T NMatP=  1 IDeriv=0 Min/MaxMlt=  0  4
 Nuclear    moments (au):
         11.00000000          0.00000000          0.00000000          0.00000000
          5.01539103          5.01539103          5.01539103          0.00000000
          0.00000000          0.00000000          0.00000000          0.00000000
          0.00000000          0.00000000         -0.00000000          0.00000000
         -0.00000000          0.00000000         -0.00000000          5.61600133
          6.28853679          6.28853679          6.28853679          0.00000000
         -0.00000000         -0.00000000          0.00000000          0.00000000
         -0.00000000          6.28853679          6.28853679          6.28853679
          0.00000000          0.00000000         -0.00000000
 Total      moments (au):
          1.00000000          0.00000000         -0.00000000         -0.00000000
         -3.18193075         -3.18193075         -3.18193075          0.00000000
          0.00000000          0.00000000          0.00000000          0.00000000
          0.00000000          0.00000000         -0.00000000          0.00000000
         -0.00000000          0.00000000         -0.00000000          2.64239433
        -19.41207137        -19.41207137        -19.41207137          0.00000000
         -0.00000000         -0.00000000          0.00000000          0.00000000
         -0.00000000         -4.03829131         -4.03829131         -4.03829131
          0.00000000         -0.00000000         -0.00000000
 Charge=              1.0000 electrons
 Dipole moment (field-independent basis, Debye):
    X=              0.0000    Y=             -0.0000    Z=             -0.0000  Tot=              0.0000
 Quadrupole moment (field-independent basis, Debye-Ang):
   XX=             -4.2798   YY=             -4.2798   ZZ=             -4.2798
   XY=              0.0000   XZ=              0.0000   YZ=              0.0000
 Traceless Quadrupole moment (field-independent basis, Debye-Ang):
   XX=              0.0000   YY=              0.0000   ZZ=             -0.0000
   XY=              0.0000   XZ=              0.0000   YZ=              0.0000
 Octapole moment (field-independent basis, Debye-Ang**2):
  XXX=              0.0000  YYY=              0.0000  ZZZ=              0.0000  XYY=              0.0000
  XXY=             -0.0000  XXZ=              0.0000  XZZ=             -0.0000  YZZ=              0.0000
  YYZ=             -0.0000  XYZ=              1.8808
 Hexadecapole moment (field-independent basis, Debye-Ang**3):
 XXXX=             -7.3115 YYYY=             -7.3115 ZZZZ=             -7.3115 XXXY=              0.0000
 XXXZ=             -0.0000 YYYX=             -0.0000 YYYZ=              0.0000 ZZZX=              0.0000
 ZZZY=             -0.0000 XXYY=             -1.5210 XXZZ=             -1.5210 YYZZ=             -1.5210
 XXYZ=              0.0000 YYXZ=             -0.0000 ZZXY=             -0.0000
 N-N= 1.633138805250D+01 E-N=-1.612646176725D+02  KE= 5.642699618586D+01
 Symmetry A    KE= 4.793663094561D+01
 Symmetry B1   KE= 2.830121746752D+00
 Symmetry B2   KE= 2.830121746752D+00
 Symmetry B3   KE= 2.830121746752D+00
 SetAtRh:  ITypeU=  23 NETotI=      -1 ICharg=  0 NETot=      11.
 StAtR1:  I=    1 I1=    1 IA=  1 C=   1.0 OKShel=T
                                                  S
                                                  1
 StAtR1:  I=    2 I1=    2 IA=  7 C=   7.0 OKShel=TTT
                                                  SSP
                                                  223
 StAtR1:  I=    3 I1=    3 IA=  1 C=   1.0 OKShel=T
                                                  S
                                                  1
 StAtR1:  I=    4 I1=    4 IA=  1 C=   1.0 OKShel=T
                                                  S
                                                  1
 StAtR1:  I=    5 I1=    5 IA=  1 C=   1.0 OKShel=T
                                                  S
                                                  1
          I=    1 IA=  1 I1=    1 NAtG=20 NE=   1.000 C=   1.000 Err= 2.80D-12
          I=    2 IA=  7 I1=    2 NAtG=22 NE=   7.000 C=   7.000 Err= 6.08D-13
          I=    3 IA=  1 I1=    3 NAtG=20 NE=   1.000 C=   1.000 Err= 2.80D-12
          I=    4 IA=  1 I1=    4 NAtG=20 NE=   1.000 C=   1.000 Err= 2.80D-12
          I=    5 IA=  1 I1=    5 NAtG=20 NE=   1.000 C=   1.000 Err= 2.80D-12
 Pruned (  99, 590) grid will be used in numerical quadrature.
 IPart=  0 IRanGd=          0 ScrnBf=T ScrnGd=T RCrit=4.00D+00 DoMicB=T.
 Pruned (  99, 590) grid will be used in numerical quadrature.
 CutRad = 1000.00    CtRdIn =    0.00    XCrit =  15.00   ICut = 0
 Pruned (  99, 590) grid will be used in numerical quadrature.
 IPart=  2 IRanGd=          0 ScrnBf=T ScrnGd=T RCrit=4.00D+00 DoMicB=T.
 IPart=  3 IRanGd=          0 ScrnBf=T ScrnGd=T RCrit=4.00D+00 DoMicB=T.
 CutRad = 1000.00    CtRdIn =    0.00    XCrit =  15.00   ICut = 0
 CutRad = 1000.00    CtRdIn =    0.00    XCrit =  15.00   ICut = 0
 Pruned (  99, 590) grid will be used in numerical quadrature.
 Pruned (  99, 590) grid will be used in numerical quadrature.
 IPart=  0 Atom number   1 atomic number  1 has       23164 grid points.
 IPart=  4 IRanGd=          0 ScrnBf=T ScrnGd=T RCrit=4.00D+00 DoMicB=T.
 Pruned (  99, 590) grid will be used in numerical quadrature.
 CutRad = 1000.00    CtRdIn =    0.00    XCrit =  15.00   ICut = 0
 IPart=  3 Atom number   1 atomic number  1 has       23164 grid points.
 Pruned (  99, 590) grid will be used in numerical quadrature.
 IPart=  2 Atom number   1 atomic number  1 has       23164 grid points.
 Pruned (  99, 590) grid will be used in numerical quadrature.
 IPart=  3 Atom   1 batch    3 overlaps    5 atoms,    50 shells and     5 DB shells.   NGrid=      2416
 IPart=  2 Atom   1 batch    2 overlaps    5 atoms,    50 shells and     5 DB shells.   NGrid=      1552
 IPart=  5 IRanGd=          0 ScrnBf=T ScrnGd=T RCrit=4.00D+00 DoMicB=T.
 CutRad = 1000.00    CtRdIn =    0.00    XCrit =  15.00   ICut = 0
 Symmetry reduced   194 angular points to   194 for atom    1.
 Pruned (  99, 590) grid will be used in numerical quadrature.
 Pruned (  99, 590) grid will be used in numerical quadrature.
 Pruned (  99, 590) grid will be used in numerical quadrature.
 IPart=  4 Atom number   1 atomic number  1 has       23164 grid points.
 IPart=  5 Atom number   1 atomic number  1 has       23164 grid points.
 Symmetry reduced   302 angular points to   302 for atom    1.
 IPart=  5 Atom   1 batch    5 overlaps    5 atoms,    50 shells and     5 DB shells.   NGrid=      1180
 IPart=  4 Atom   1 batch    4 overlaps    5 atoms,    50 shells and     5 DB shells.   NGrid=      1180
 IPart=  0 Atom   1 batch    1 overlaps    5 atoms,    50 shells and     5 DB shells.   NGrid=      2838
 Symmetry reduced   590 angular points to   590 for atom    1.
 Symmetry reduced    86 angular points to    86 for atom    1.
 Symmetry reduced   590 angular points to   590 for atom    1.
 Pruned (  99, 590) grid will be used in numerical quadrature.
 IPart=  7 IRanGd=          0 ScrnBf=T ScrnGd=T RCrit=4.00D+00 DoMicB=T.
 CutRad = 1000.00    CtRdIn =    0.00    XCrit =  15.00   ICut = 0
 IPart=  6 IRanGd=          0 ScrnBf=T ScrnGd=T RCrit=4.00D+00 DoMicB=T.
 CutRad = 1000.00    CtRdIn =    0.00    XCrit =  15.00   ICut = 0
 Pruned (  99, 590) grid will be used in numerical quadrature.
 Pruned (  99, 590) grid will be used in numerical quadrature.
 IPart=  6 Atom number   1 atomic number  1 has       23164 grid points.
 IPart=  7 Atom number   1 atomic number  1 has       23164 grid points.
 IPart=  6 Atom   1 batch    7 overlaps    5 atoms,    50 shells and     5 DB shells.   NGrid=      1180
 IPart=  7 Atom   1 batch    6 overlaps    5 atoms,    50 shells and     5 DB shells.   NGrid=      1180
 Symmetry reduced   590 angular points to   590 for atom    1.
 Symmetry reduced   590 angular points to   590 for atom    1.
 Pruned (  99, 590) grid will be used in numerical quadrature.
 IPart=  1 IRanGd=          0 ScrnBf=T ScrnGd=T RCrit=4.00D+00 DoMicB=T.
 CutRad = 1000.00    CtRdIn =    0.00    XCrit =  15.00   ICut = 0
 Pruned (  99, 590) grid will be used in numerical quadrature.
 IPart=  1 Atom number   1 atomic number  1 has       23164 grid points.
 IPart=  1 Atom   1 batch    8 overlaps    5 atoms,    50 shells and     5 DB shells.   NGrid=      1180
 Symmetry reduced   590 angular points to   590 for atom    1.
 IPart=  5 Atom   1 batch    9 overlaps    5 atoms,    50 shells and     5 DB shells.   NGrid=      1180
 IPart=  4 Atom   1 batch   10 overlaps    5 atoms,    50 shells and     5 DB shells.   NGrid=      1180
 IPart=  6 Atom   1 batch   11 overlaps    5 atoms,    50 shells and     5 DB shells.   NGrid=      1180
 IPart=  7 Atom   1 batch   12 overlaps    5 atoms,    50 shells and     5 DB shells.   NGrid=      1180
 IPart=  1 Atom   1 batch   13 overlaps    5 atoms,    50 shells and     5 DB shells.   NGrid=       604
 Symmetry reduced   302 angular points to   302 for atom    1.
 IPart=  2 Atom   1 batch   14 overlaps    5 atoms,    49 shells and     5 DB shells.   NGrid=       604
 Symmetry reduced   302 angular points to   302 for atom    1.
 IPart=  1 Atom   1 batch   15 overlaps    5 atoms,    46 shells and     5 DB shells.   NGrid=       604
 IPart=  2 Atom   1 batch   16 overlaps    5 atoms,    43 shells and     5 DB shells.   NGrid=       604
 IPart=  3 Atom   1 batch   17 overlaps    5 atoms,    33 shells and     5 DB shells.   NGrid=       604
 IPart=  6 Atom   1 batch   18 overlaps    5 atoms,    28 shells and     5 DB shells.   NGrid=       604
 Symmetry reduced   302 angular points to   302 for atom    1.
 IPart=  7 Atom   1 batch   19 overlaps    5 atoms,    20 shells and     4 DB shells.   NGrid=       604
 IPart=  5 Atom   1 batch   20 overlaps    5 atoms,    12 shells and     0 DB shells.   NGrid=       604
 Symmetry reduced   302 angular points to   302 for atom    1.
 Symmetry reduced   302 angular points to   302 for atom    1.
 IPart=  4 Atom   1 batch   21 overlaps    5 atoms,     5 shells and     0 DB shells.   NGrid=       604
 Symmetry reduced   302 angular points to   302 for atom    1.
 IPart=  5 Atom   1 batch   22 overlaps    5 atoms,     3 shells and     0 DB shells.   NGrid=       302
 Pruned (  99, 590) grid will be used in numerical quadrature.
 IPart=  7 Atom number   2 atomic number  7 has       23416 grid points.
 IPart=  7 Atom   2 batch    1 overlaps    5 atoms,    50 shells and     5 DB shells.   NGrid=      2408
 Symmetry reduced    86 angular points to    86 for atom    2.
 Pruned (  99, 590) grid will be used in numerical quadrature.
 IPart=  1 Atom number   2 atomic number  7 has       23416 grid points.
 IPart=  1 Atom   2 batch    2 overlaps    5 atoms,    50 shells and     5 DB shells.   NGrid=      2522
 Symmetry reduced   194 angular points to   194 for atom    2.
 Pruned (  99, 590) grid will be used in numerical quadrature.
 Pruned (  99, 590) grid will be used in numerical quadrature.
 Pruned (  99, 590) grid will be used in numerical quadrature.
 IPart=  5 Atom number   2 atomic number  7 has       23416 grid points.
 IPart=  0 Atom number   2 atomic number  7 has       23416 grid points.
 IPart=  5 Atom   2 batch    4 overlaps    5 atoms,    50 shells and     5 DB shells.   NGrid=      1180
 IPart=  0 Atom   2 batch    5 overlaps    5 atoms,    50 shells and     5 DB shells.   NGrid=      1180
 IPart=  6 Atom number   2 atomic number  7 has       23416 grid points.
 Symmetry reduced   590 angular points to   590 for atom    2.
 IPart=  6 Atom   2 batch    3 overlaps    5 atoms,    50 shells and     5 DB shells.   NGrid=      2114
 Symmetry reduced   590 angular points to   590 for atom    2.
 Pruned (  99, 590) grid will be used in numerical quadrature.
 Symmetry reduced   302 angular points to   302 for atom    2.
 IPart=  4 Atom number   2 atomic number  7 has       23416 grid points.
 IPart=  4 Atom   2 batch    6 overlaps    5 atoms,    50 shells and     5 DB shells.   NGrid=      1180
 Symmetry reduced   590 angular points to   590 for atom    2.
 Pruned (  99, 590) grid will be used in numerical quadrature.
 IPart=  2 Atom number   2 atomic number  7 has       23416 grid points.
 IPart=  2 Atom   2 batch    7 overlaps    5 atoms,    50 shells and     5 DB shells.   NGrid=      1180
 Symmetry reduced   590 angular points to   590 for atom    2.
 Pruned (  99, 590) grid will be used in numerical quadrature.
 IPart=  3 Atom number   2 atomic number  7 has       23416 grid points.
 IPart=  3 Atom   2 batch    8 overlaps    5 atoms,    50 shells and     5 DB shells.   NGrid=      1180
 Symmetry reduced   590 angular points to   590 for atom    2.
 IPart=  0 Atom   2 batch    9 overlaps    5 atoms,    50 shells and     5 DB shells.   NGrid=      1180
 IPart=  5 Atom   2 batch   10 overlaps    5 atoms,    50 shells and     5 DB shells.   NGrid=      1180
 IPart=  4 Atom   2 batch   11 overlaps    5 atoms,    50 shells and     5 DB shells.   NGrid=      1180
 IPart=  2 Atom   2 batch   12 overlaps    5 atoms,    49 shells and     5 DB shells.   NGrid=       590
 IPart=  3 Atom   2 batch   13 overlaps    5 atoms,    49 shells and     5 DB shells.   NGrid=       604
 Symmetry reduced   302 angular points to   302 for atom    2.
 IPart=  2 Atom   2 batch   14 overlaps    5 atoms,    49 shells and     5 DB shells.   NGrid=       604
 Symmetry reduced   302 angular points to   302 for atom    2.
 IPart=  3 Atom   2 batch   15 overlaps    5 atoms,    47 shells and     5 DB shells.   NGrid=       604
 IPart=  6 Atom   2 batch   16 overlaps    5 atoms,    45 shells and     5 DB shells.   NGrid=       604
 IPart=  7 Atom   2 batch   17 overlaps    5 atoms,    37 shells and     5 DB shells.   NGrid=       604
 Symmetry reduced   302 angular points to   302 for atom    2.
 IPart=  4 Atom   2 batch   18 overlaps    5 atoms,    30 shells and     5 DB shells.   NGrid=       604
 Symmetry reduced   302 angular points to   302 for atom    2.
 IPart=  5 Atom   2 batch   19 overlaps    5 atoms,    21 shells and     5 DB shells.   NGrid=       604
 Symmetry reduced   302 angular points to   302 for atom    2.
 IPart=  0 Atom   2 batch   20 overlaps    5 atoms,    14 shells and     4 DB shells.   NGrid=       604
 Symmetry reduced   302 angular points to   302 for atom    2.
 IPart=  1 Atom   2 batch   21 overlaps    5 atoms,     6 shells and     0 DB shells.   NGrid=       604
 Symmetry reduced   302 angular points to   302 for atom    2.
 IPart=  0 Atom   2 batch   22 overlaps    5 atoms,     4 shells and     0 DB shells.   NGrid=       604
 IPart=  2 Atom   2 batch   23 overlaps    5 atoms,     0 shells and     0 DB shells.   NGrid=       302
 Pruned (  99, 590) grid will be used in numerical quadrature.
 IPart=  2 Atom number   3 atomic number  1 has       23164 grid points.
 IPart=  2 Atom   3 batch    1 overlaps    5 atoms,    50 shells and     5 DB shells.   NGrid=      2838
 Symmetry reduced    86 angular points to    86 for atom    3.
 Pruned (  99, 590) grid will be used in numerical quadrature.
 IPart=  5 Atom number   3 atomic number  1 has       23164 grid points.
 IPart=  5 Atom   3 batch    2 overlaps    5 atoms,    50 shells and     5 DB shells.   NGrid=      1552
 Pruned (  99, 590) grid will be used in numerical quadrature.
 Symmetry reduced   194 angular points to   194 for atom    3.
 IPart=  3 Atom number   3 atomic number  1 has       23164 grid points.
 IPart=  3 Atom   3 batch    3 overlaps    5 atoms,    50 shells and     5 DB shells.   NGrid=      2416
 Symmetry reduced   302 angular points to   302 for atom    3.
 Pruned (  99, 590) grid will be used in numerical quadrature.
 IPart=  1 Atom number   3 atomic number  1 has       23164 grid points.
 IPart=  1 Atom   3 batch    4 overlaps    5 atoms,    50 shells and     5 DB shells.   NGrid=      1180
 Symmetry reduced   590 angular points to   590 for atom    3.
 Pruned (  99, 590) grid will be used in numerical quadrature.
 IPart=  6 Atom number   3 atomic number  1 has       23164 grid points.
 IPart=  6 Atom   3 batch    5 overlaps    5 atoms,    50 shells and     5 DB shells.   NGrid=      1180
 Symmetry reduced   590 angular points to   590 for atom    3.
 Pruned (  99, 590) grid will be used in numerical quadrature.
 IPart=  4 Atom number   3 atomic number  1 has       23164 grid points.
 IPart=  4 Atom   3 batch    6 overlaps    5 atoms,    50 shells and     5 DB shells.   NGrid=      1180
 Symmetry reduced   590 angular points to   590 for atom    3.
 Pruned (  99, 590) grid will be used in numerical quadrature.
 IPart=  7 Atom number   3 atomic number  1 has       23164 grid points.
 IPart=  7 Atom   3 batch    7 overlaps    5 atoms,    50 shells and     5 DB shells.   NGrid=      1180
 Symmetry reduced   590 angular points to   590 for atom    3.
 Pruned (  99, 590) grid will be used in numerical quadrature.
 IPart=  0 Atom number   3 atomic number  1 has       23164 grid points.
 IPart=  0 Atom   3 batch    8 overlaps    5 atoms,    50 shells and     5 DB shells.   NGrid=      1180
 Symmetry reduced   590 angular points to   590 for atom    3.
 IPart=  1 Atom   3 batch    9 overlaps    5 atoms,    50 shells and     5 DB shells.   NGrid=      1180
 IPart=  6 Atom   3 batch   10 overlaps    5 atoms,    50 shells and     5 DB shells.   NGrid=      1180
 IPart=  4 Atom   3 batch   11 overlaps    5 atoms,    50 shells and     5 DB shells.   NGrid=      1180
 IPart=  7 Atom   3 batch   12 overlaps    5 atoms,    50 shells and     5 DB shells.   NGrid=      1180
 IPart=  0 Atom   3 batch   13 overlaps    5 atoms,    50 shells and     5 DB shells.   NGrid=       604
 Symmetry reduced   302 angular points to   302 for atom    3.
 IPart=  5 Atom   3 batch   14 overlaps    5 atoms,    49 shells and     5 DB shells.   NGrid=       604
 Symmetry reduced   302 angular points to   302 for atom    3.
 IPart=  0 Atom   3 batch   15 overlaps    5 atoms,    46 shells and     5 DB shells.   NGrid=       604
 IPart=  5 Atom   3 batch   16 overlaps    5 atoms,    43 shells and     5 DB shells.   NGrid=       604
 IPart=  3 Atom   3 batch   17 overlaps    5 atoms,    33 shells and     5 DB shells.   NGrid=       604
 IPart=  1 Atom   3 batch   18 overlaps    5 atoms,    28 shells and     5 DB shells.   NGrid=       604
 Symmetry reduced   302 angular points to   302 for atom    3.
 IPart=  4 Atom   3 batch   19 overlaps    5 atoms,    20 shells and     4 DB shells.   NGrid=       604
 Symmetry reduced   302 angular points to   302 for atom    3.
 IPart=  7 Atom   3 batch   20 overlaps    5 atoms,    12 shells and     0 DB shells.   NGrid=       604
 Symmetry reduced   302 angular points to   302 for atom    3.
 IPart=  6 Atom   3 batch   21 overlaps    5 atoms,     5 shells and     0 DB shells.   NGrid=       604
 Symmetry reduced   302 angular points to   302 for atom    3.
 IPart=  0 Atom   3 batch   22 overlaps    5 atoms,     3 shells and     0 DB shells.   NGrid=       302
 Pruned (  99, 590) grid will be used in numerical quadrature.
 IPart=  4 Atom number   4 atomic number  1 has       23164 grid points.
 IPart=  4 Atom   4 batch    1 overlaps    5 atoms,    50 shells and     5 DB shells.   NGrid=      2838
 Pruned (  99, 590) grid will be used in numerical quadrature.
 Symmetry reduced    86 angular points to    86 for atom    4.
 IPart=  7 Atom number   4 atomic number  1 has       23164 grid points.
 IPart=  7 Atom   4 batch    2 overlaps    5 atoms,    50 shells and     5 DB shells.   NGrid=      1552
 Symmetry reduced   194 angular points to   194 for atom    4.
 Pruned (  99, 590) grid will be used in numerical quadrature.
 IPart=  5 Atom number   4 atomic number  1 has       23164 grid points.
 IPart=  5 Atom   4 batch    3 overlaps    5 atoms,    50 shells and     5 DB shells.   NGrid=      2416
 Symmetry reduced   302 angular points to   302 for atom    4.
 Pruned (  99, 590) grid will be used in numerical quadrature.
 IPart=  1 Atom number   4 atomic number  1 has       23164 grid points.
 IPart=  1 Atom   4 batch    4 overlaps    5 atoms,    50 shells and     5 DB shells.   NGrid=      1180
 Symmetry reduced   590 angular points to   590 for atom    4.
 Pruned (  99, 590) grid will be used in numerical quadrature.
 IPart=  2 Atom number   4 atomic number  1 has       23164 grid points.
 Pruned (  99, 590) grid will be used in numerical quadrature.
 IPart=  2 Atom   4 batch    5 overlaps    5 atoms,    50 shells and     5 DB shells.   NGrid=      1180
 IPart=  0 Atom number   4 atomic number  1 has       23164 grid points.
 IPart=  0 Atom   4 batch    6 overlaps    5 atoms,    50 shells and     5 DB shells.   NGrid=      1180
 Symmetry reduced   590 angular points to   590 for atom    4.
 Symmetry reduced   590 angular points to   590 for atom    4.
 Pruned (  99, 590) grid will be used in numerical quadrature.
 IPart=  6 Atom number   4 atomic number  1 has       23164 grid points.
 IPart=  6 Atom   4 batch    7 overlaps    5 atoms,    50 shells and     5 DB shells.   NGrid=      1180
 Symmetry reduced   590 angular points to   590 for atom    4.
 Pruned (  99, 590) grid will be used in numerical quadrature.
 IPart=  3 Atom number   4 atomic number  1 has       23164 grid points.
 IPart=  3 Atom   4 batch    8 overlaps    5 atoms,    50 shells and     5 DB shells.   NGrid=      1180
 Symmetry reduced   590 angular points to   590 for atom    4.
 IPart=  1 Atom   4 batch    9 overlaps    5 atoms,    50 shells and     5 DB shells.   NGrid=      1180
 IPart=  2 Atom   4 batch   10 overlaps    5 atoms,    50 shells and     5 DB shells.   NGrid=      1180
 IPart=  0 Atom   4 batch   11 overlaps    5 atoms,    50 shells and     5 DB shells.   NGrid=      1180
 IPart=  6 Atom   4 batch   12 overlaps    5 atoms,    50 shells and     5 DB shells.   NGrid=      1180
 IPart=  3 Atom   4 batch   13 overlaps    5 atoms,    50 shells and     5 DB shells.   NGrid=       604
 Symmetry reduced   302 angular points to   302 for atom    4.
 IPart=  7 Atom   4 batch   14 overlaps    5 atoms,    49 shells and     5 DB shells.   NGrid=       604
 Symmetry reduced   302 angular points to   302 for atom    4.
 IPart=  3 Atom   4 batch   15 overlaps    5 atoms,    46 shells and     5 DB shells.   NGrid=       604
 IPart=  7 Atom   4 batch   16 overlaps    5 atoms,    43 shells and     5 DB shells.   NGrid=       604
 IPart=  6 Atom   4 batch   17 overlaps    5 atoms,    33 shells and     5 DB shells.   NGrid=       604
 Symmetry reduced   302 angular points to   302 for atom    4.
 IPart=  5 Atom   4 batch   18 overlaps    5 atoms,    28 shells and     5 DB shells.   NGrid=       604
 IPart=  1 Atom   4 batch   19 overlaps    5 atoms,    20 shells and     4 DB shells.   NGrid=       604
 IPart=  0 Atom   4 batch   20 overlaps    5 atoms,    12 shells and     0 DB shells.   NGrid=       604
 Symmetry reduced   302 angular points to   302 for atom    4.
 Symmetry reduced   302 angular points to   302 for atom    4.
 IPart=  2 Atom   4 batch   21 overlaps    5 atoms,     5 shells and     0 DB shells.   NGrid=       604
 Symmetry reduced   302 angular points to   302 for atom    4.
 IPart=  0 Atom   4 batch   22 overlaps    5 atoms,     3 shells and     0 DB shells.   NGrid=       302
 Pruned (  99, 590) grid will be used in numerical quadrature.
 IPart=  1 Atom number   5 atomic number  1 has       23164 grid points.
 IPart=  1 Atom   5 batch    1 overlaps    5 atoms,    50 shells and     5 DB shells.   NGrid=      2838
 Symmetry reduced    86 angular points to    86 for atom    5.
 Pruned (  99, 590) grid will be used in numerical quadrature.
 IPart=  3 Atom number   5 atomic number  1 has       23164 grid points.
 IPart=  3 Atom   5 batch    2 overlaps    5 atoms,    50 shells and     5 DB shells.   NGrid=      1552
 Symmetry reduced   194 angular points to   194 for atom    5.
 Pruned (  99, 590) grid will be used in numerical quadrature.
 Pruned (  99, 590) grid will be used in numerical quadrature.
 Pruned (  99, 590) grid will be used in numerical quadrature.
 IPart=  0 Atom number   5 atomic number  1 has       23164 grid points.
 IPart=  5 Atom number   5 atomic number  1 has       23164 grid points.
 IPart=  0 Atom   5 batch    4 overlaps    5 atoms,    50 shells and     5 DB shells.   NGrid=      1180
 IPart=  5 Atom   5 batch    5 overlaps    5 atoms,    50 shells and     5 DB shells.   NGrid=      1180
 IPart=  7 Atom number   5 atomic number  1 has       23164 grid points.
 Pruned (  99, 590) grid will be used in numerical quadrature.
 Symmetry reduced   590 angular points to   590 for atom    5.
 IPart=  2 Atom number   5 atomic number  1 has       23164 grid points.
 IPart=  7 Atom   5 batch    3 overlaps    5 atoms,    50 shells and     5 DB shells.   NGrid=      2416
 IPart=  2 Atom   5 batch    6 overlaps    5 atoms,    50 shells and     5 DB shells.   NGrid=      1180
 Symmetry reduced   590 angular points to   590 for atom    5.
 Symmetry reduced   302 angular points to   302 for atom    5.
 Symmetry reduced   590 angular points to   590 for atom    5.
 Pruned (  99, 590) grid will be used in numerical quadrature.
 IPart=  4 Atom number   5 atomic number  1 has       23164 grid points.
 IPart=  4 Atom   5 batch    7 overlaps    5 atoms,    50 shells and     5 DB shells.   NGrid=      1180
 Symmetry reduced   590 angular points to   590 for atom    5.
 Pruned (  99, 590) grid will be used in numerical quadrature.
 IPart=  6 Atom number   5 atomic number  1 has       23164 grid points.
 IPart=  6 Atom   5 batch    8 overlaps    5 atoms,    50 shells and     5 DB shells.   NGrid=      1180
 Symmetry reduced   590 angular points to   590 for atom    5.
 IPart=  5 Atom   5 batch    9 overlaps    5 atoms,    50 shells and     5 DB shells.   NGrid=      1180
 IPart=  0 Atom   5 batch   10 overlaps    5 atoms,    50 shells and     5 DB shells.   NGrid=      1180
 IPart=  2 Atom   5 batch   11 overlaps    5 atoms,    50 shells and     5 DB shells.   NGrid=      1180
 IPart=  4 Atom   5 batch   12 overlaps    5 atoms,    50 shells and     5 DB shells.   NGrid=      1180
 IPart=  6 Atom   5 batch   13 overlaps    5 atoms,    50 shells and     5 DB shells.   NGrid=       604
 Symmetry reduced   302 angular points to   302 for atom    5.
 IPart=  3 Atom   5 batch   14 overlaps    5 atoms,    49 shells and     5 DB shells.   NGrid=       604
 Symmetry reduced   302 angular points to   302 for atom    5.
 IPart=  6 Atom   5 batch   15 overlaps    5 atoms,    46 shells and     5 DB shells.   NGrid=       604
 IPart=  3 Atom   5 batch   16 overlaps    5 atoms,    43 shells and     5 DB shells.   NGrid=       604
 IPart=  4 Atom   5 batch   17 overlaps    5 atoms,    33 shells and     5 DB shells.   NGrid=       604
 Symmetry reduced   302 angular points to   302 for atom    5.
 IPart=  2 Atom   5 batch   18 overlaps    5 atoms,    28 shells and     5 DB shells.   NGrid=       604
 Symmetry reduced   302 angular points to   302 for atom    5.
 IPart=  5 Atom   5 batch   19 overlaps    5 atoms,    20 shells and     4 DB shells.   NGrid=       604
 Symmetry reduced   302 angular points to   302 for atom    5.
 IPart=  0 Atom   5 batch   20 overlaps    5 atoms,    12 shells and     0 DB shells.   NGrid=       604
 IPart=  7 Atom   5 batch   21 overlaps    5 atoms,     5 shells and     0 DB shells.   NGrid=       604
 Symmetry reduced   302 angular points to   302 for atom    5.
 IPart=  5 Atom   5 batch   22 overlaps    5 atoms,     3 shells and     0 DB shells.   NGrid=       302
 There are a total of      115770 grid points.
 ElSum from          density=       10.0000007669
 ElSum from atomic densities=       11.0000025148

 Hirshfeld populations at iteration   1 (CX, CA, CB, DipXYZ):
               1          2          3          4          5          6
     1  H    0.000000   0.384757   0.384757   0.127764   0.127764   0.127764
     2  N    0.000000   3.460970   3.460970  -0.000000   0.000000  -0.000000
     3  H    0.000000   0.384757   0.384757  -0.127764  -0.127764   0.127764
     4  H    0.000000   0.384757   0.384757  -0.127764   0.127764  -0.127764
     5  H    0.000000   0.384757   0.384757   0.127764  -0.127764  -0.127764
       Tot   0.000001   5.000000   5.000000  -0.000000   0.000000   0.000000

 Dip from Atomic Chgs             -0.000000  -0.000000   0.000000
         Total Dipole             -0.000000   0.000000   0.000000

 Hirshfeld charges, spin densities, dipoles, and CM5 charges using IRadAn=      5:
              Q-H        S-H        Dx         Dy         Dz        Q-CM5   
     1  H    0.230485   0.000000   0.127764   0.127764   0.127764   0.406781
     2  N    0.078059   0.000000  -0.000000   0.000000  -0.000000  -0.627126
     3  H    0.230485   0.000000  -0.127764  -0.127764   0.127764   0.406781
     4  H    0.230485   0.000000  -0.127764   0.127764  -0.127764   0.406781
     5  H    0.230485   0.000000   0.127764  -0.127764  -0.127764   0.406781
       Tot   0.999999   0.000000  -0.000000   0.000000   0.000000   0.999999
 Hirshfeld charges with hydrogens summed into heavy atoms:
              Q-H       Q-CM5   
     2  N    0.999999   0.999999
 
 EQQ=  0.00000000000     EQD=  0.00000000000     EDD=-0.308295972627E-02
 EQQ+QD+DD=-0.308295972627E-02
 
  Exact polarizability:       8.965      -0.000       8.965      -0.000      -0.000       8.965
 Approx polarizability:       7.772       0.000       7.772       0.000      -0.000       7.772
 Entering OneElI...
 OneElI was handed  1572817015 working-precision words.
 Calculate electrostatic properties
    NBasis =   138  MinDer = 0  MaxDer = 0
    NGrid  =     5  NMatD  =   1
 Requested accuracy = 0.1000D-12
 ShPair: Thresh= 1.00D-13 NBox=     0 BxSize= 0.00D+00 RnKept= 3.17D+00
         NSMCal=                 1275 NSMKep=                1260
 PrmmSu-InSpLW:  IPartL=    0 NPrtUS=    8 NPrtUL=    1 DoSpLW=F IThBeg=    0 IThEnd=    7 NThAct=    8.
 PrSmSu:  IncTry=   512 NBBP=           6300 NTPThr=   100 NPartT=    8 Incr=           7 LDynOK=F GPUOK=F.
 PrsmSu:  NPrtUS=   8 ThrOK=T IAlg=2 LenDen=           0 ISkipM=0 DoSpLW=F IThBeg=    0 IThEnd=    7.
 Prism:   IPart=     0 DynPar=F LinDyn=F Incr=           7.
 PRISM was handed   196573699 working-precision words and  1260 shell-pairs
 PRISM was handed   196573699 working-precision words and  1260 shell-pairs
 PRISM was handed   196573699 working-precision words and  1260 shell-pairs
 PRISM was handed   196573699 working-precision words and  1260 shell-pairs
 PRISM was handed   196573699 working-precision words and  1260 shell-pairs
 PRISM was handed   196573699 working-precision words and  1260 shell-pairs
 PRISM was handed   196573699 working-precision words and  1260 shell-pairs
 PRISM was handed   196573699 working-precision words and  1260 shell-pairs
 IPart=  7 NShTot=         715 NBatch=         143 AvBLen=         5.0
 PrsmSu-ThDecC:  IPartSL=    7    0 NPrtUSL=    8    1 IThBeg=    0 IThEnd=    7 CPU=   -1 GPU=   -1 NThAct=    8.
 IPart=  0 NShTot=         870 NBatch=         174 AvBLen=         5.0
 PrsmSu-ThDecC:  IPartSL=    0    0 NPrtUSL=    8    1 IThBeg=    0 IThEnd=    7 CPU=   -1 GPU=   -1 NThAct=    7.
 IPart=  5 NShTot=         760 NBatch=         152 AvBLen=         5.0
 IPart=  6 NShTot=         740 NBatch=         148 AvBLen=         5.0
 PrsmSu-ThDecC:  IPartSL=    5    0 NPrtUSL=    8    1 IThBeg=    0 IThEnd=    7 CPU=   -1 GPU=   -1 NThAct=    6.
 PrsmSu-ThDecC:  IPartSL=    6    0 NPrtUSL=    8    1 IThBeg=    0 IThEnd=    7 CPU=   -1 GPU=   -1 NThAct=    5.
 IPart=  4 NShTot=         765 NBatch=         153 AvBLen=         5.0
 IPart=  3 NShTot=         800 NBatch=         160 AvBLen=         5.0
 IPart=  2 NShTot=         815 NBatch=         163 AvBLen=         5.0
 IPart=  1 NShTot=         835 NBatch=         167 AvBLen=         5.0
 PrsmSu-ThDecC:  IPartSL=    4    0 NPrtUSL=    8    1 IThBeg=    0 IThEnd=    7 CPU=   -1 GPU=   -1 NThAct=    4.
 PrsmSu-ThDecC:  IPartSL=    1    0 NPrtUSL=    8    1 IThBeg=    0 IThEnd=    7 CPU=   -1 GPU=   -1 NThAct=    3.
 PrsmSu-ThDecC:  IPartSL=    2    0 NPrtUSL=    8    1 IThBeg=    0 IThEnd=    7 CPU=   -1 GPU=   -1 NThAct=    2.
 PrsmSu-ThDecC:  IPartSL=    3    0 NPrtUSL=    8    1 IThBeg=    0 IThEnd=    7 CPU=   -1 GPU=   -1 NThAct=    1.
 PrSmSu:  NxtVal=             57.
 --------------------------------------------------------
       Center         ----      EFG at Nuclei      ----
                      3XX-RR        3YY-RR        3ZZ-RR
 --------------------------------------------------------
     1   Atom        0.000000     -0.000000     -0.000000
     2   Atom        0.000000      0.000000      0.000000
     3   Atom        0.000000     -0.000000      0.000000
     4   Atom        0.000000     -0.000000     -0.000000
     5   Atom        0.000000     -0.000000      0.000000
 --------------------------------------------------------
                        XY            XZ            YZ
 --------------------------------------------------------
     1   Atom       -0.163263     -0.163263     -0.163263
     2   Atom        0.000000     -0.000000     -0.000000
     3   Atom       -0.163263      0.163263      0.163263
     4   Atom        0.163263     -0.163263      0.163263
     5   Atom        0.163263      0.163263     -0.163263
 --------------------------------------------------------


 ---------------------------------------------------------------------------------
              Nuclear Quadrupole Coupling Constant in Principal Axis System
 ---------------------------------------------------------------------------------

       Atom             a.u.   MegaHertz   Gauss  10(-4) cm-1        Axes

              Baa     0.0000    -0.000    -0.000    -0.000  0.7603 -0.5564  0.3353
     2 N(14)  Bbb     0.0000    -0.000    -0.000    -0.000  0.0930  0.6041  0.7915
              Bcc     0.0000    -0.000    -0.000    -0.000  0.6429  0.5706 -0.5110
 

 ---------------------------------------------------------------------------------

 No NMR shielding tensors so no spin-rotation constants.
 Leave Link  601 at Wed Jun 19 08:44:13 2024, MaxMem=  1572864000 cpu:               1.4 elap:               0.2
 (Enter /software/sse/easybuild/prefix/software/Gaussian/16.C.01-avx2-nsc1/g16/l602.exe)
 FitSet:  NAtFit=     5 NAtPot=     5 NAtFrz=     0 MDM=     9 TotChg=   1.00000
 Merz-Kollman atomic radii used.
 Read replacement radii for each type of atom:
 Atom Element Radius
    1     1    1.20
    2     7    1.50
    3     1    1.20
    4     1    1.20
    5     1    1.20
 Generate VDW surfaces: Layer= 4 Dens= 6 Start= 1.400 Inc= 0.200

 **********************************************************************

            Electrostatic Properties Using The SCF Density.

 **********************************************************************

       Atomic Center    1 is at   0.592548  0.592548  0.592548
       Atomic Center    2 is at   0.000000  0.000000  0.000000
       Atomic Center    3 is at  -0.592548 -0.592548  0.592548
       Atomic Center    4 is at  -0.592548  0.592548 -0.592548
       Atomic Center    5 is at   0.592548 -0.592548 -0.592548
      ESP Fit Center    6 is at   0.592548  0.592548  2.272548
      ESP Fit Center    7 is at   1.027364  0.592548  2.215303
      ESP Fit Center    8 is at   0.809956  0.969110  2.215303
      ESP Fit Center    9 is at   0.375140  0.969110  2.215303
      ESP Fit Center   10 is at   0.157732  0.592548  2.215303
      ESP Fit Center   11 is at   0.375140  0.215986  2.215303
      ESP Fit Center   12 is at   0.809956  0.215986  2.215303
      ESP Fit Center   13 is at   1.432548  0.592548  2.047471
      ESP Fit Center   14 is at   1.320009  1.012548  2.047471
      ESP Fit Center   15 is at   1.012548  1.320009  2.047471
      ESP Fit Center   16 is at   0.592548  1.432548  2.047471
      ESP Fit Center   17 is at   0.172548  1.320009  2.047471
      ESP Fit Center   18 is at  -0.134913  1.012548  2.047471
      ESP Fit Center   19 is at  -0.247452  0.592548  2.047471
      ESP Fit Center   20 is at   0.592548 -0.247452  2.047471
      ESP Fit Center   21 is at   1.012548 -0.134913  2.047471
      ESP Fit Center   22 is at   1.320009  0.172548  2.047471
      ESP Fit Center   23 is at   1.780487  0.592548  1.780487
      ESP Fit Center   24 is at   1.700268  1.021681  1.780487
      ESP Fit Center   25 is at   1.470446  1.392858  1.780487
      ESP Fit Center   26 is at   1.122058  1.655948  1.780487
      ESP Fit Center   27 is at   0.702157  1.775420  1.780487
      ESP Fit Center   28 is at   0.267453  1.735139  1.780487
      ESP Fit Center   29 is at  -0.123345  1.540544  1.780487
      ESP Fit Center   30 is at  -0.417458  1.217918  1.780487
      ESP Fit Center   31 is at   1.122058 -0.470852  1.780487
      ESP Fit Center   32 is at   1.470446 -0.207762  1.780487
      ESP Fit Center   33 is at   1.700268  0.163415  1.780487
      ESP Fit Center   34 is at   2.047471  0.592548  1.432548
      ESP Fit Center   35 is at   1.982833  1.021394  1.432548
      ESP Fit Center   36 is at   1.794662  1.412135  1.432548
      ESP Fit Center   37 is at   1.499677  1.730052  1.432548
      ESP Fit Center   38 is at   1.124091  1.946897  1.432548
      ESP Fit Center   39 is at   0.701275  2.043402  1.432548
      ESP Fit Center   40 is at   0.268797  2.010993  1.432548
      ESP Fit Center   41 is at  -0.134913  1.852548  1.432548
      ESP Fit Center   42 is at  -0.473986  1.582147  1.432548
      ESP Fit Center   43 is at   1.499677 -0.544956  1.432548
      ESP Fit Center   44 is at   1.794662 -0.227039  1.432548
      ESP Fit Center   45 is at   1.982833  0.163702  1.432548
      ESP Fit Center   46 is at   2.215303  0.592548  1.027364
      ESP Fit Center   47 is at   2.160009  1.012548  1.027364
      ESP Fit Center   48 is at   1.997895  1.403926  1.027364
      ESP Fit Center   49 is at   1.740009  1.740009  1.027364
      ESP Fit Center   50 is at   1.403926  1.997895  1.027364
      ESP Fit Center   51 is at   1.012548  2.160009  1.027364
      ESP Fit Center   52 is at   0.592548  2.215303  1.027364
      ESP Fit Center   53 is at   0.172548  2.160009  1.027364
      ESP Fit Center   54 is at  -0.218830  1.997895  1.027364
      ESP Fit Center   55 is at   1.997895 -0.218830  1.027364
      ESP Fit Center   56 is at   2.160009  0.172548  1.027364
      ESP Fit Center   57 is at   2.272548  0.592548  0.592548
      ESP Fit Center   58 is at   2.219768  1.010347  0.592548
      ESP Fit Center   59 is at   2.064743  1.401894  0.592548
      ESP Fit Center   60 is at   1.817215  1.742587  0.592548
      ESP Fit Center   61 is at   1.492737  2.011019  0.592548
      ESP Fit Center   62 is at   1.111697  2.190323  0.592548
      ESP Fit Center   63 is at   0.698036  2.269233  0.592548
      ESP Fit Center   64 is at   0.277747  2.242791  0.592548
      ESP Fit Center   65 is at  -0.122761  2.112657  0.592548
      ESP Fit Center   66 is at   2.064743 -0.216798  0.592548
      ESP Fit Center   67 is at   2.219768  0.174749  0.592548
      ESP Fit Center   68 is at   2.215303  0.592548  0.157732
      ESP Fit Center   69 is at   2.160009  1.012548  0.157732
      ESP Fit Center   70 is at   1.997895  1.403926  0.157732
      ESP Fit Center   71 is at   1.740009  1.740009  0.157732
      ESP Fit Center   72 is at   1.403926  1.997895  0.157732
      ESP Fit Center   73 is at   1.012548  2.160009  0.157732
      ESP Fit Center   74 is at   0.592548  2.215303  0.157732
      ESP Fit Center   75 is at   0.172548  2.160009  0.157732
      ESP Fit Center   76 is at   2.160009  0.172548  0.157732
      ESP Fit Center   77 is at   2.047471  0.592548 -0.247452
      ESP Fit Center   78 is at   1.982833  1.021394 -0.247452
      ESP Fit Center   79 is at   1.794662  1.412135 -0.247452
      ESP Fit Center   80 is at   1.499677  1.730052 -0.247452
      ESP Fit Center   81 is at   1.124091  1.946897 -0.247452
      ESP Fit Center   82 is at   0.701275  2.043402 -0.247452
      ESP Fit Center   83 is at   1.470446  1.392858 -0.595391
      ESP Fit Center   84 is at   0.000000  0.000000  2.100000
      ESP Fit Center   85 is at  -0.204845  0.354802  2.059649
      ESP Fit Center   86 is at   0.204845 -0.354802  2.059649
      ESP Fit Center   87 is at  -0.703092  0.931045  1.746086
      ESP Fit Center   88 is at  -0.991946  0.614187  1.746086
      ESP Fit Center   89 is at   0.862200 -0.785999  1.746086
      ESP Fit Center   90 is at  -0.616860  1.350735  1.484924
      ESP Fit Center   91 is at  -0.972419  1.122231  1.484924
      ESP Fit Center   92 is at  -1.249198  0.802811  1.484924
      ESP Fit Center   93 is at   0.616860 -1.350735  1.484924
      ESP Fit Center   94 is at   0.972419 -1.122231  1.484924
      ESP Fit Center   95 is at   1.249198 -0.802811  1.484924
      ESP Fit Center   96 is at  -0.619171  1.632619  1.166697
      ESP Fit Center   97 is at  -0.991890  1.437001  1.166697
      ESP Fit Center   98 is at  -1.306964  1.157869  1.166697
      ESP Fit Center   99 is at  -1.546083  0.811447  1.166697
      ESP Fit Center  100 is at   0.619171 -1.632619  1.166697
      ESP Fit Center  101 is at   0.991890 -1.437001  1.166697
      ESP Fit Center  102 is at   1.306964 -1.157869  1.166697
      ESP Fit Center  103 is at   1.546083 -0.811447  1.166697
      ESP Fit Center  104 is at  -0.718122  1.802351  0.803635
      ESP Fit Center  105 is at  -1.088785  1.605838  0.803635
      ESP Fit Center  106 is at  -1.408538  1.334238  0.803635
      ESP Fit Center  107 is at  -1.662429  1.000250  0.803635
      ESP Fit Center  108 is at  -1.838586  0.619492  0.803635
      ESP Fit Center  109 is at   0.519044 -1.869429  0.803635
      ESP Fit Center  110 is at   0.908781 -1.714143  0.803635
      ESP Fit Center  111 is at   1.256025 -1.478706  0.803635
      ESP Fit Center  112 is at   1.544538 -1.174127  0.803635
      ESP Fit Center  113 is at   1.760830 -0.814647  0.803635
      ESP Fit Center  114 is at  -0.516256  1.993899  0.409690
      ESP Fit Center  115 is at  -1.965192  0.616583  0.409690
      ESP Fit Center  116 is at   0.311888 -2.035898  0.409690
      ESP Fit Center  117 is at   2.017488 -0.414604  0.409690
      ESP Fit Center  118 is at   2.100000  0.000000  0.000000
      ESP Fit Center  119 is at   0.000000  2.100000  0.000000
      ESP Fit Center  120 is at  -2.100000  0.000000  0.000000
      ESP Fit Center  121 is at  -0.000000 -2.100000  0.000000
      ESP Fit Center  122 is at   2.017488  0.414604 -0.409690
      ESP Fit Center  123 is at   0.311888  2.035898 -0.409690
      ESP Fit Center  124 is at  -1.965192 -0.616583 -0.409690
      ESP Fit Center  125 is at  -0.516256 -1.993899 -0.409690
      ESP Fit Center  126 is at   1.760830  0.814647 -0.803635
      ESP Fit Center  127 is at   1.544538  1.174127 -0.803635
      ESP Fit Center  128 is at   1.256025  1.478706 -0.803635
      ESP Fit Center  129 is at   0.908781  1.714143 -0.803635
      ESP Fit Center  130 is at   0.519044  1.869429 -0.803635
      ESP Fit Center  131 is at  -1.838586 -0.619492 -0.803635
      ESP Fit Center  132 is at  -1.662429 -1.000250 -0.803635
      ESP Fit Center  133 is at  -1.408538 -1.334238 -0.803635
      ESP Fit Center  134 is at  -1.088785 -1.605838 -0.803635
      ESP Fit Center  135 is at  -0.718122 -1.802351 -0.803635
      ESP Fit Center  136 is at   1.546083  0.811447 -1.166697
      ESP Fit Center  137 is at   1.306964  1.157869 -1.166697
      ESP Fit Center  138 is at   0.991890  1.437001 -1.166697
      ESP Fit Center  139 is at   0.619171  1.632619 -1.166697
      ESP Fit Center  140 is at  -1.546083 -0.811447 -1.166697
      ESP Fit Center  141 is at  -1.306964 -1.157869 -1.166697
      ESP Fit Center  142 is at  -0.991890 -1.437001 -1.166697
      ESP Fit Center  143 is at  -0.619171 -1.632619 -1.166697
      ESP Fit Center  144 is at   1.249198  0.802811 -1.484924
      ESP Fit Center  145 is at   0.972419  1.122231 -1.484924
      ESP Fit Center  146 is at   0.616860  1.350735 -1.484924
      ESP Fit Center  147 is at  -1.249198 -0.802811 -1.484924
      ESP Fit Center  148 is at  -0.972419 -1.122231 -1.484924
      ESP Fit Center  149 is at  -0.616860 -1.350735 -1.484924
      ESP Fit Center  150 is at   0.862200  0.785999 -1.746086
      ESP Fit Center  151 is at  -0.991946 -0.614187 -1.746086
      ESP Fit Center  152 is at  -0.703092 -0.931045 -1.746086
      ESP Fit Center  153 is at   0.204845  0.354802 -2.059649
      ESP Fit Center  154 is at  -0.204845 -0.354802 -2.059649
      ESP Fit Center  155 is at   0.000000  0.000000 -2.100000
      ESP Fit Center  156 is at  -0.592548 -0.592548  2.272548
      ESP Fit Center  157 is at  -0.157732 -0.592548  2.215303
      ESP Fit Center  158 is at  -0.375140 -0.215986  2.215303
      ESP Fit Center  159 is at  -0.809956 -0.215986  2.215303
      ESP Fit Center  160 is at  -1.027364 -0.592548  2.215303
      ESP Fit Center  161 is at  -0.809956 -0.969110  2.215303
      ESP Fit Center  162 is at  -0.375140 -0.969110  2.215303
      ESP Fit Center  163 is at   0.247452 -0.592548  2.047471
      ESP Fit Center  164 is at  -0.592548  0.247452  2.047471
      ESP Fit Center  165 is at  -1.012548  0.134913  2.047471
      ESP Fit Center  166 is at  -1.320009 -0.172548  2.047471
      ESP Fit Center  167 is at  -1.432548 -0.592548  2.047471
      ESP Fit Center  168 is at  -1.320009 -1.012548  2.047471
      ESP Fit Center  169 is at  -1.012548 -1.320009  2.047471
      ESP Fit Center  170 is at  -0.592548 -1.432548  2.047471
      ESP Fit Center  171 is at  -0.172548 -1.320009  2.047471
      ESP Fit Center  172 is at   0.134913 -1.012548  2.047471
      ESP Fit Center  173 is at  -1.308441  0.355448  1.780487
      ESP Fit Center  174 is at  -1.602554  0.032822  1.780487
      ESP Fit Center  175 is at  -1.760260 -0.374265  1.780487
      ESP Fit Center  176 is at  -1.760260 -0.810831  1.780487
      ESP Fit Center  177 is at  -1.602554 -1.217918  1.780487
      ESP Fit Center  178 is at  -1.308441 -1.540544  1.780487
      ESP Fit Center  179 is at  -0.917643 -1.735139  1.780487
      ESP Fit Center  180 is at  -0.482939 -1.775420  1.780487
      ESP Fit Center  181 is at  -0.063038 -1.655948  1.780487
      ESP Fit Center  182 is at   0.285350 -1.392858  1.780487
      ESP Fit Center  183 is at   0.515172 -1.021681  1.780487
      ESP Fit Center  184 is at  -1.659082  0.397051  1.432548
      ESP Fit Center  185 is at  -1.903388  0.038719  1.432548
      ESP Fit Center  186 is at  -2.031220 -0.375703  1.432548
      ESP Fit Center  187 is at  -2.031220 -0.809393  1.432548
      ESP Fit Center  188 is at  -1.903388 -1.223815  1.432548
      ESP Fit Center  189 is at  -1.659082 -1.582147  1.432548
      ESP Fit Center  190 is at  -1.320009 -1.852548  1.432548
      ESP Fit Center  191 is at  -0.916299 -2.010993  1.432548
      ESP Fit Center  192 is at  -0.483821 -2.043402  1.432548
      ESP Fit Center  193 is at  -0.061005 -1.946897  1.432548
      ESP Fit Center  194 is at   0.314581 -1.730052  1.432548
      ESP Fit Center  195 is at   0.609566 -1.412135  1.432548
      ESP Fit Center  196 is at  -1.997895  0.218830  1.027364
      ESP Fit Center  197 is at  -2.160009 -0.172548  1.027364
      ESP Fit Center  198 is at  -2.215303 -0.592548  1.027364
      ESP Fit Center  199 is at  -2.160009 -1.012548  1.027364
      ESP Fit Center  200 is at  -1.997895 -1.403926  1.027364
      ESP Fit Center  201 is at  -1.740009 -1.740009  1.027364
      ESP Fit Center  202 is at  -1.403926 -1.997895  1.027364
      ESP Fit Center  203 is at  -1.012548 -2.160009  1.027364
      ESP Fit Center  204 is at  -0.592548 -2.215303  1.027364
[...]
      X                                                                                                                              
      X                                                                                                                              
 
 
                                                               ammonium
                                                            Raman Spectrum
 
      3  3                                                           1       1                                                       
      6  5                                                           8       6                                                       
      8  6                                                           4       0                                                       
      2  7                                                           6       2                                                       
 
      X  X                                                           X       X                                                       
      X  X                                                                                                                           
      X  X                                                                                                                           
      X  X                                                                                                                           
      X  X                                                                                                                           
      X  X                                                                                                                           
      X  X                                                                                                                           
      X  X                                                                                                                           
      X  X                                                                                                                           
      X  X                                                                                                                           
         X                                                                                                                           
         X                                                                                                                           
         X                                                                                                                           
         X                                                                                                                           
         X                                                                                                                           
         X                                                                                                                           
         X                                                                                                                           
         X                                                                                                                           
         X                                                                                                                           
         X                                                                                                                           
 
 ***** Axes restored to original set *****
 -------------------------------------------------------------------
 Center     Atomic                   Forces (Hartrees/Bohr)
 Number     Number              X              Y              Z
 -------------------------------------------------------------------
      1        1          -0.000000002   -0.000000002   -0.000000002
      2        7          -0.000000000   -0.000000000    0.000000000
      3        1           0.000000002    0.000000002   -0.000000002
      4        1           0.000000002   -0.000000002    0.000000002
      5        1          -0.000000002    0.000000002    0.000000002
 -------------------------------------------------------------------
 Cartesian Forces:  Max     0.000000002 RMS     0.000000002
 Force constants in Cartesian coordinates: 
                1             2             3             4             5 
      1  0.201495D+00
      2  0.137736D+00  0.201495D+00
      3  0.137736D+00  0.137736D+00  0.201495D+00
      4 -0.198926D+00 -0.126617D+00 -0.126617D+00  0.795706D+00
      5 -0.126617D+00 -0.198926D+00 -0.126617D+00  0.000000D+00  0.795706D+00
      6 -0.126617D+00 -0.126617D+00 -0.198926D+00  0.000000D+00  0.000000D+00
      7 -0.123733D-01 -0.111191D-01  0.152314D-01 -0.198926D+00 -0.126617D+00
      8 -0.111191D-01 -0.123733D-01  0.152314D-01 -0.126617D+00 -0.198926D+00
      9 -0.152314D-01 -0.152314D-01  0.221776D-01  0.126617D+00  0.126617D+00
     10 -0.123733D-01  0.152314D-01 -0.111191D-01 -0.198926D+00  0.126617D+00
     11 -0.152314D-01  0.221776D-01 -0.152314D-01  0.126617D+00 -0.198926D+00
     12 -0.111191D-01  0.152314D-01 -0.123733D-01 -0.126617D+00  0.126617D+00
     13  0.221776D-01 -0.152314D-01 -0.152314D-01 -0.198926D+00  0.126617D+00
     14  0.152314D-01 -0.123733D-01 -0.111191D-01  0.126617D+00 -0.198926D+00
     15  0.152314D-01 -0.111191D-01 -0.123733D-01  0.126617D+00 -0.126617D+00
                6             7             8             9            10 
      6  0.795706D+00
      7  0.126617D+00  0.201495D+00
      8  0.126617D+00  0.137736D+00  0.201495D+00
      9 -0.198926D+00 -0.137736D+00 -0.137736D+00  0.201495D+00
     10 -0.126617D+00  0.221776D-01 -0.152314D-01  0.152314D-01  0.201495D+00
     11  0.126617D+00  0.152314D-01 -0.123733D-01  0.111191D-01 -0.137736D+00
     12 -0.198926D+00 -0.152314D-01  0.111191D-01 -0.123733D-01  0.137736D+00
     13  0.126617D+00 -0.123733D-01  0.152314D-01  0.111191D-01 -0.123733D-01
     14 -0.126617D+00 -0.152314D-01  0.221776D-01  0.152314D-01  0.111191D-01
     15 -0.198926D+00  0.111191D-01 -0.152314D-01 -0.123733D-01 -0.152314D-01
               11            12            13            14            15 
     11  0.201495D+00
     12 -0.137736D+00  0.201495D+00
     13  0.111191D-01  0.152314D-01  0.201495D+00
     14 -0.123733D-01 -0.152314D-01 -0.137736D+00  0.201495D+00
     15  0.152314D-01  0.221776D-01 -0.137736D+00  0.137736D+00  0.201495D+00
 FormGI is forming the generalized inverse of G from B-inverse, IUseBI=4.
 Force constants in internal coordinates: 
                1             2             3             4             5 
      1  0.476967D+00
      2  0.274556D-02  0.476967D+00
      3  0.274556D-02  0.274556D-02  0.476967D+00
      4  0.274556D-02  0.274556D-02  0.274556D-02  0.476967D+00
      5  0.413512D-02  0.909726D-02 -0.578916D-02 -0.744321D-02  0.112074D+00
      6  0.413512D-02 -0.578916D-02  0.909726D-02 -0.744321D-02 -0.427526D-01
      7  0.413512D-02 -0.578916D-02 -0.578916D-02  0.744321D-02 -0.424142D-01
      8 -0.827023D-03  0.413512D-02  0.413512D-02 -0.744321D-02  0.656896D-02
      9 -0.578916D-02  0.661619D-02 -0.827023D-02  0.744321D-02 -0.182610D-01
     10 -0.578916D-02 -0.827023D-02  0.661619D-02  0.744321D-02 -0.152155D-01
     11 -0.810314D-02  0.405157D-02  0.405157D-02  0.000000D+00 -0.124548D-01
                6             7             8             9            10 
      6  0.112074D+00
      7 -0.424142D-01  0.112751D+00
      8  0.656896D-02  0.893769D-02  0.627528D-01
      9 -0.152155D-01 -0.184302D-01 -0.424142D-01  0.124574D+00
     10 -0.182610D-01 -0.184302D-01 -0.424142D-01 -0.302530D-01  0.124574D+00
     11 -0.124548D-01 -0.116259D-01  0.249096D-01  0.581296D-02  0.581296D-02
               11 
     11  0.376273D-01
 Leave Link  716 at Wed Jun 19 08:44:31 2024, MaxMem=  1572864000 cpu:               0.3 elap:               0.1
 (Enter /software/sse/easybuild/prefix/software/Gaussian/16.C.01-avx2-nsc1/g16/l103.exe)

 GradGradGradGradGradGradGradGradGradGradGradGradGradGradGradGradGradGrad
 Berny optimization.
 Red2BG is reusing G-inverse.
 Internal  Forces:  Max     0.000000003 RMS     0.000000002
 Search for a local minimum.
 Step number   1 out of a maximum of    2
 All quantities printed in internal units (Hartrees-Bohrs-Radians)
 Second derivative matrix not updated -- analytic derivatives used.
 The second derivative matrix:
                          R1        R2        R3        R4        A1
           R1           0.47697
           R2           0.00275   0.47697
           R3           0.00275   0.00275   0.47697
           R4           0.00275   0.00275   0.00275   0.47697
           A1           0.00414   0.00910  -0.00579  -0.00744   0.11207
           A2           0.00414  -0.00579   0.00910  -0.00744  -0.04275
           A3           0.00414  -0.00579  -0.00579   0.00744  -0.04241
           A4          -0.00083   0.00414   0.00414  -0.00744   0.00657
           A5          -0.00579   0.00662  -0.00827   0.00744  -0.01826
           A6          -0.00579  -0.00827   0.00662   0.00744  -0.01522
           D1          -0.00810   0.00405   0.00405   0.00000  -0.01245
                          A2        A3        A4        A5        A6
           A2           0.11207
           A3          -0.04241   0.11275
           A4           0.00657   0.00894   0.06275
           A5          -0.01522  -0.01843  -0.04241   0.12457
           A6          -0.01826  -0.01843  -0.04241  -0.03025   0.12457
           D1          -0.01245  -0.01163   0.02491   0.00581   0.00581
                          D1
           D1           0.03763
 ITU=  0
     Eigenvalues ---    0.06727   0.15041   0.15041   0.15715   0.15787
     Eigenvalues ---    0.47480   0.47559   0.47559   0.48520
 Angle between quadratic step and forces=  90.00 degrees.
 Linear search not attempted -- first point.
 Iteration  1 RMS(Cart)=  0.00000000 RMS(Int)=  0.00000000
 ITry= 1 IFail=0 DXMaxC= 3.59D-09 DCOld= 1.00D+10 DXMaxT= 3.00D-01 DXLimC= 3.00D+00 Rises=F
 ClnCor:  largest displacement from symmetrization is 6.09D-14 for atom     3.
 Variable       Old X    -DE/DX   Delta X   Delta X   Delta X     New X
                                 (Linear)    (Quad)   (Total)
    R1        1.90852  -0.00000   0.00000  -0.00000  -0.00000   1.90852
    R2        1.90852  -0.00000   0.00000  -0.00000  -0.00000   1.90852
    R3        1.90852  -0.00000   0.00000  -0.00000  -0.00000   1.90852
    R4        1.90852  -0.00000   0.00000  -0.00000  -0.00000   1.90852
    A1        1.91063   0.00000   0.00000   0.00000  -0.00000   1.91063
    A2        1.91063  -0.00000   0.00000  -0.00000   0.00000   1.91063
    A3        1.91063  -0.00000   0.00000  -0.00000   0.00000   1.91063
    A4        1.91063  -0.00000   0.00000  -0.00000   0.00000   1.91063
    A5        1.91063  -0.00000   0.00000  -0.00000   0.00000   1.91063
    A6        1.91063   0.00000   0.00000   0.00000   0.00000   1.91063
    D1        2.09440  -0.00000   0.00000  -0.00000   0.00000   2.09440
         Item               Value     Threshold  Converged?
 Maximum Force            0.000000     0.000002     YES
 RMS     Force            0.000000     0.000001     YES
 Maximum Displacement     0.000000     0.000006     YES
 RMS     Displacement     0.000000     0.000004     YES
 Predicted change in Energy=-3.753004D-17
 Optimization completed.
    -- Stationary point found.
                           ----------------------------
                           !   Optimized Parameters   !
                           ! (Angstroms and Degrees)  !
 --------------------------                            --------------------------
 ! Name  Definition              Value          Derivative Info.                !
 --------------------------------------------------------------------------------
 ! R1    R(1,2)                  1.0099         -DE/DX =    0.0                 !
 ! R2    R(2,3)                  1.0099         -DE/DX =    0.0                 !
 ! R3    R(2,4)                  1.0099         -DE/DX =    0.0                 !
 ! R4    R(2,5)                  1.0099         -DE/DX =    0.0                 !
 ! A1    A(1,2,3)              109.4712         -DE/DX =    0.0                 !
 ! A2    A(1,2,4)              109.4712         -DE/DX =    0.0                 !
 ! A3    A(1,2,5)              109.4712         -DE/DX =    0.0                 !
 ! A4    A(3,2,4)              109.4712         -DE/DX =    0.0                 !
 ! A5    A(3,2,5)              109.4712         -DE/DX =    0.0                 !
 ! A6    A(4,2,5)              109.4712         -DE/DX =    0.0                 !
 ! D1    D(3,2,5,4)            120.0            -DE/DX =    0.0                 !
 --------------------------------------------------------------------------------
 GradGradGradGradGradGradGradGradGradGradGradGradGradGradGradGradGradGrad

 Leave Link  103 at Wed Jun 19 08:44:31 2024, MaxMem=  1572864000 cpu:               0.1 elap:               0.0
 (Enter /software/sse/easybuild/prefix/software/Gaussian/16.C.01-avx2-nsc1/g16/l9999.exe)
 Dipole is zero, so no output in dipole orientation.

 ----------------------------------------------------------------------

 Electric dipole moment (input orientation):
 (Debye = 10**-18 statcoulomb cm , SI units = C m)
                  (au)            (Debye)         (10**-30 SI)
   Tot        0.000000D+00      0.000000D+00      0.000000D+00
   x          0.000000D+00      0.000000D+00      0.000000D+00
   y          0.000000D+00      0.000000D+00      0.000000D+00
   z          0.000000D+00      0.000000D+00      0.000000D+00

 Dipole polarizability, Alpha (input orientation).
 (esu units = cm**3 , SI units = C**2 m**2 J**-1)
 Alpha(0;0):
               (au)            (10**-24 esu)      (10**-40 SI)
   iso        0.863249D+01      0.127920D+01      0.142331D+01
   aniso      0.000000D+00      0.000000D+00      0.000000D+00
   xx         0.863249D+01      0.127920D+01      0.142331D+01
   yx         0.000000D+00      0.000000D+00      0.000000D+00
   yy         0.863249D+01      0.127920D+01      0.142331D+01
   zx         0.000000D+00      0.000000D+00      0.000000D+00
   zy         0.000000D+00      0.000000D+00      0.000000D+00
   zz         0.863249D+01      0.127920D+01      0.142331D+01

 First dipole hyperpolarizability, Beta (input orientation).
 ||, _|_  parallel and perpendicular components, (z) with respect to z axis,
 vector components x,y,z.  Values do not include the 1/n! factor of 1/2.
 (esu units = statvolt**-1 cm**4 , SI units = C**3 m**3 J**-2)
 Beta(0;0,0):
               (au)            (10**-30 esu)      (10**-50 SI)
   || (z)     0.000000D+00      0.000000D+00      0.000000D+00
   _|_(z)     0.000000D+00      0.000000D+00      0.000000D+00
   x          0.000000D+00      0.000000D+00      0.000000D+00
   y          0.000000D+00      0.000000D+00      0.000000D+00
   z          0.000000D+00      0.000000D+00      0.000000D+00
   ||         0.000000D+00      0.000000D+00      0.000000D+00
   xxx        0.000000D+00      0.000000D+00      0.000000D+00
   xxy        0.000000D+00      0.000000D+00      0.000000D+00
   yxy        0.000000D+00      0.000000D+00      0.000000D+00
   yyy        0.000000D+00      0.000000D+00      0.000000D+00
   xxz        0.000000D+00      0.000000D+00      0.000000D+00
   yxz        0.498736D+01      0.430869D-01      0.159913D-01
   yyz        0.000000D+00      0.000000D+00      0.000000D+00
   zxz        0.000000D+00      0.000000D+00      0.000000D+00
   zyz        0.000000D+00      0.000000D+00      0.000000D+00
   zzz        0.000000D+00      0.000000D+00      0.000000D+00

 ----------------------------------------------------------------------

 Test job not archived.
 1\1\NSC-N1063\Freq\RHF\Aug-CC-pVTZ\H4N1(1+)\X_DAVVA\19-Jun-2024\0\\#P 
 Geom=AllCheck Guess=TCheck SCRF=Check Test GenChk RHF/Aug-CC-pVTZ Freq
 \\ammonium\\1,1\H,0.583091895,0.583091895,0.583091895\N,0.,0.,0.\H,-0.
 583091895,-0.583091895,0.583091895\H,-0.583091895,0.583091895,-0.58309
 1895\H,0.583091895,-0.583091895,-0.583091895\\Version=ES64L-G16RevC.01
 \State=1-A1\HF=-56.564849\RMSD=5.753e-10\RMSF=1.558e-09\ZeroPoint=0.05
 26482\Thermal=0.0554927\ETot=-56.5093563\HTot=-56.5084121\GTot=-56.529
 463\Dipole=0.,0.,0.\DipoleDeriv=0.3135749,0.0386527,0.0386527,0.038652
 7,0.3135749,0.0386527,0.0386527,0.0386527,0.3135749,-0.2542997,0.,0.,0
 .,-0.2542997,0.,0.,0.,-0.2542997,0.3135749,0.0386527,-0.0386527,0.0386
 527,0.3135749,-0.0386527,-0.0386527,-0.0386527,0.3135749,0.3135749,-0.
 0386527,0.0386527,-0.0386527,0.3135749,-0.0386527,0.0386527,-0.0386527
 ,0.3135749,0.3135749,-0.0386527,-0.0386527,-0.0386527,0.3135749,0.0386
 527,-0.0386527,0.0386527,0.3135749\Polar=8.6324944,0.,8.6324944,0.,0.,
 8.6324944\PolarDeriv=2.1636373,0.9834933,1.2011857,0.9834933,0.7396707
 ,1.2011857,1.2011857,0.9834933,2.1636373,0.7396707,0.9834933,1.2011857
 ,1.2011857,0.7396707,1.2011857,0.9834933,0.9834933,2.1636373,0.0000002
 ,0.,0.0000001,0.,-2.9586828,0.0000001,0.0000001,0.,0.0000002,-2.958682
 8,0.,0.0000001,0.0000001,-2.9586828,0.0000001,0.,0.,0.0000002,-2.16363
 73,-0.9834933,-1.2011857,0.9834933,0.7396707,-1.2011857,-1.2011857,-0.
 9834933,-2.1636373,0.7396707,0.9834933,-1.2011857,1.2011857,0.7396707,
 1.2011857,-0.9834933,-0.9834933,2.1636373,-2.1636373,0.9834933,-1.2011
 857,-0.9834933,0.7396707,-1.2011857,1.2011857,-0.9834933,2.1636373,0.7
 396707,-0.9834933,1.2011857,-1.2011857,0.7396707,-1.2011857,-0.9834933
 ,0.9834933,-2.1636373,2.1636373,-0.9834933,1.2011857,-0.9834933,0.7396
 707,1.2011857,-1.2011857,0.9834933,-2.1636373,0.7396707,-0.9834933,-1.
 2011857,-1.2011857,0.7396707,-1.2011857,0.9834933,-0.9834933,-2.163637
 3\HyperPolar=0.,0.,0.,0.,0.,4.987355,0.,0.,0.,0.\Quadrupole=0.,0.,0.,0
 .,0.,0.\PG=TD [O(N1),4C3(H1)]\NImag=0\\0.20149542,0.13773590,0.2014954
 2,0.13773590,0.13773590,0.20149542,-0.19892640,-0.12661679,-0.12661679
 ,0.79570561,-0.12661679,-0.19892640,-0.12661679,0.,0.79570561,-0.12661
 679,-0.12661679,-0.19892640,0.,0.,0.79570561,-0.01237329,-0.01111911,0
 .01523142,-0.19892640,-0.12661678,0.12661679,0.20149542,-0.01111911,-0
 .01237329,0.01523142,-0.12661678,-0.19892640,0.12661679,0.13773590,0.2
 0149542,-0.01523142,-0.01523142,0.02217756,0.12661678,0.12661678,-0.19
 892640,-0.13773590,-0.13773590,0.20149542,-0.01237329,0.01523142,-0.01
 111911,-0.19892640,0.12661679,-0.12661678,0.02217756,-0.01523142,0.015
 23142,0.20149542,-0.01523142,0.02217756,-0.01523142,0.12661678,-0.1989
 2640,0.12661678,0.01523142,-0.01237329,0.01111911,-0.13773590,0.201495
 42,-0.01111911,0.01523142,-0.01237329,-0.12661678,0.12661679,-0.198926
 40,-0.01523142,0.01111911,-0.01237329,0.13773590,-0.13773590,0.2014954
 2,0.02217756,-0.01523142,-0.01523142,-0.19892640,0.12661678,0.12661678
 ,-0.01237329,0.01523142,0.01111911,-0.01237329,0.01111911,0.01523142,0
 .20149542,0.01523142,-0.01237329,-0.01111911,0.12661679,-0.19892640,-0
 .12661678,-0.01523142,0.02217756,0.01523142,0.01111911,-0.01237329,-0.
 01523142,-0.13773590,0.20149542,0.01523142,-0.01111911,-0.01237329,0.1
 2661679,-0.12661678,-0.19892640,0.01111911,-0.01523142,-0.01237329,-0.
 01523142,0.01523142,0.02217756,-0.13773590,0.13773590,0.20149542\\0.,0
 .,0.,0.,0.,0.,0.,0.,0.,0.,0.,0.,0.,0.,0.\\\@


 ERWIN WITH HIS PSI CAN DO
 CALCULATIONS QUITE A FEW.
 BUT ONE THING HAS NOT BEEN SEEN
 JUST WHAT DOES PSI REALLY MEAN.
 -- WALTER HUCKEL, TRANS. BY FELIX BLOCH
 Job cpu time:       0 days  0 hours  0 minutes 41.4 seconds.
 Elapsed time:       0 days  0 hours  0 minutes  5.7 seconds.
 File lengths (MBytes):  RWF=    332 Int=      0 D2E=      0 Chk=      8 Scr=      8
 Normal termination of Gaussian 16 at Wed Jun 19 08:44:31 2024.
