 Entering Gaussian System, Link 0=/software/sse/easybuild/prefix/software/Gaussian/16.C.01-avx2-nsc1/g16/g16.orig
 Input=formate-19-oep.wrap
 Output=formate-19-oep.log
 Initial command:
 /software/sse/easybuild/prefix/software/Gaussian/16.C.01-avx2-nsc1/g16/l1.exe "formate-19-oep..dir/Gau-1381399.inp" -scrdir="formate-19-oep..dir/"
 Entering Link 1 = /software/sse/easybuild/prefix/software/Gaussian/16.C.01-avx2-nsc1/g16/l1.exe PID=   1381400.
  
 Copyright (c) 1988-2019, Gaussian, Inc.  All Rights Reserved.
  
 This is part of the Gaussian(R) 16 program.  It is based on
 the Gaussian(R) 09 system (copyright 2009, Gaussian, Inc.),
 the Gaussian(R) 03 system (copyright 2003, Gaussian, Inc.),
 the Gaussian(R) 98 system (copyright 1998, Gaussian, Inc.),
 the Gaussian(R) 94 system (copyright 1995, Gaussian, Inc.),
 the Gaussian 92(TM) system (copyright 1992, Gaussian, Inc.),
 the Gaussian 90(TM) system (copyright 1990, Gaussian, Inc.),
 the Gaussian 88(TM) system (copyright 1988, Gaussian, Inc.),
 the Gaussian 86(TM) system (copyright 1986, Carnegie Mellon
 University), and the Gaussian 82(TM) system (copyright 1983,
 Carnegie Mellon University). Gaussian is a federally registered
 trademark of Gaussian, Inc.
  
 This software contains proprietary and confidential information,
 including trade secrets, belonging to Gaussian, Inc.
  
 This software is provided under written license and may be
 used, copied, transmitted, or stored only in accord with that
 written license.
  
 The following legend is applicable only to US Government
 contracts under FAR:
  
                    RESTRICTED RIGHTS LEGEND
  
 Use, reproduction and disclosure by the US Government is
 subject to restrictions as set forth in subparagraphs (a)
 and (c) of the Commercial Computer Software - Restricted
 Rights clause in FAR 52.227-19.
  
 Gaussian, Inc.
 340 Quinnipiac St., Bldg. 40, Wallingford CT 06492
  
  
 ---------------------------------------------------------------
 Warning -- This program may not be used in any manner that
 competes with the business of Gaussian, Inc. or will provide
 assistance to any competitor of Gaussian, Inc.  The licensee
 of this program is prohibited from giving any competitor of
 Gaussian, Inc. access to this program.  By using this program,
 the user acknowledges that Gaussian, Inc. is engaged in the
 business of creating and licensing software in the field of
 computational chemistry and represents and warrants to the
 licensee that it is not a competitor of Gaussian, Inc. and that
 it will not use this program in any manner prohibited above.
 ---------------------------------------------------------------
  

 Cite this work as:
 Gaussian 16, Revision C.01,
 M. J. Frisch, G. W. Trucks, H. B. Schlegel, G. E. Scuseria, 
 M. A. Robb, J. R. Cheeseman, G. Scalmani, V. Barone, 
 G. A. Petersson, H. Nakatsuji, X. Li, M. Caricato, A. V. Marenich, 
 J. Bloino, B. G. Janesko, R. Gomperts, B. Mennucci, H. P. Hratchian, 
 J. V. Ortiz, A. F. Izmaylov, J. L. Sonnenberg, D. Williams-Young, 
 F. Ding, F. Lipparini, F. Egidi, J. Goings, B. Peng, A. Petrone, 
 T. Henderson, D. Ranasinghe, V. G. Zakrzewski, J. Gao, N. Rega, 
 G. Zheng, W. Liang, M. Hada, M. Ehara, K. Toyota, R. Fukuda, 
 J. Hasegawa, M. Ishida, T. Nakajima, Y. Honda, O. Kitao, H. Nakai, 
 T. Vreven, K. Throssell, J. A. Montgomery, Jr., J. E. Peralta, 
 F. Ogliaro, M. J. Bearpark, J. J. Heyd, E. N. Brothers, K. N. Kudin, 
 V. N. Staroverov, T. A. Keith, R. Kobayashi, J. Normand, 
 K. Raghavachari, A. P. Rendell, J. C. Burant, S. S. Iyengar, 
 J. Tomasi, M. Cossi, J. M. Millam, M. Klene, C. Adamo, R. Cammi, 
 J. W. Ochterski, R. L. Martin, K. Morokuma, O. Farkas, 
 J. B. Foresman, and D. J. Fox, Gaussian, Inc., Wallingford CT, 2019.
 
 ******************************************
 Gaussian 16:  ES64L-G16RevC.01  3-Jul-2019
                19-Jun-2024 
 ******************************************
 %mem=12000MB
 %nprocshared=8
 Will use up to    8 processors via shared memory.
 %chk=formate19.chk
 ----------------------------------------------------------------------
 #P HF/aug-cc-pvtz Opt=(Redundant, calcall, verytight) symm=(loose,foll
 ow) Pop=(MK,Hirshfeld,ReadRadii) iop(6/33=2) iop(6/42=6) Polar Freq ma
 xdisk=128GB
 ----------------------------------------------------------------------
 1/7=1,10=4,18=20,19=15,38=1/1,3;
 2/9=110,12=2,17=4,18=3,40=1/2;
 3/5=16,6=1,7=10,11=9,25=1,30=1,71=2,140=1/1,2,3;
 4//1;
 5/5=2,38=5,98=1/2;
 8/6=4,10=90,11=11/1;
 11/6=1,8=1,9=11,15=111,16=1/1,2,10;
 10/6=1/2;
 6/7=2,8=2,9=2,10=2,15=8,18=1,20=101,28=1,33=2,42=6,79=1/1,2;
 7/10=1,25=1/1,2,3,16;
 1/7=1,10=4,18=20,19=15/3(3);
 2/9=110,15=5/2;
 7/8=1,9=1,25=1,44=-1/16;
 99//99;
 2/9=110,15=5/2;
 3/5=16,6=1,7=10,11=9,25=1,30=1,71=2,140=1/1,2,3;
 4/5=5,16=3,69=1/1;
 5/5=2,38=5,98=1/2;
 8/6=4,10=90,11=11/1;
 11/6=1,8=1,9=11,15=111,16=1/1,2,10;
 10/6=1/2;
 7/10=1,25=1/1,2,3,16;
 1/7=1,10=4,18=20,19=15/3(-8);
 2/9=110,15=5/2;
 6/7=2,8=2,9=2,10=2,15=8,18=1,19=2,20=101,28=1,33=2,42=6,79=1/1,2;
 7/8=1,9=1,25=1,44=-1/16;
 99//99;
 Leave Link    1 at Wed Jun 19 08:44:06 2024, MaxMem=  1572864000 cpu:               2.1 elap:               0.3
 (Enter /software/sse/easybuild/prefix/software/Gaussian/16.C.01-avx2-nsc1/g16/l101.exe)
 -------
 formate
 -------
 Symbolic Z-matrix:
 Charge = -1 Multiplicity = 1
 O                    -1.13758  -0.20687   0. 
 O                     1.1376   -0.20676   0. 
 C                    -0.00002   0.30762   0. 
 H                    -0.00007   1.46328   0. 
 
 ITRead=  0  0  0  0
 MicOpt= -1 -1 -1 -1
 NAtoms=      4 NQM=        4 NQMF=       0 NMMI=      0 NMMIF=      0
                NMic=       0 NMicF=      0.
                    Isotopes and Nuclear Properties:
 (Nuclear quadrupole moments (NQMom) in fm**2, nuclear magnetic moments (NMagM)
  in nuclear magnetons)

  Atom         1           2           3           4
 IAtWgt=          16          16          12           1
 AtmWgt=  15.9949146  15.9949146  12.0000000   1.0078250
 NucSpn=           0           0           0           1
 AtZEff=  -0.0000000  -0.0000000  -0.0000000  -0.0000000
 NQMom=    0.0000000   0.0000000   0.0000000   0.0000000
 NMagM=    0.0000000   0.0000000   0.0000000   2.7928460
 AtZNuc=   8.0000000   8.0000000   6.0000000   1.0000000
 Leave Link  101 at Wed Jun 19 08:44:06 2024, MaxMem=  1572864000 cpu:               1.9 elap:               0.3
 (Enter /software/sse/easybuild/prefix/software/Gaussian/16.C.01-avx2-nsc1/g16/l103.exe)

 GradGradGradGradGradGradGradGradGradGradGradGradGradGradGradGradGradGrad
 Berny optimization.
 Initialization pass.
                           ----------------------------
                           !    Initial Parameters    !
                           ! (Angstroms and Degrees)  !
 --------------------------                            --------------------------
 ! Name  Definition              Value          Derivative Info.                !
 --------------------------------------------------------------------------------
 ! R1    R(1,3)                  1.2485         calculate D2E/DX2 analytically  !
 ! R2    R(2,3)                  1.2485         calculate D2E/DX2 analytically  !
 ! R3    R(3,4)                  1.1557         calculate D2E/DX2 analytically  !
 ! A1    A(1,3,2)              131.3337         calculate D2E/DX2 analytically  !
 ! A2    A(1,3,4)              114.3332         calculate D2E/DX2 analytically  !
 ! A3    A(2,3,4)              114.3331         calculate D2E/DX2 analytically  !
 ! D1    D(1,3,4,2)            180.0            calculate D2E/DX2 analytically  !
 --------------------------------------------------------------------------------
 Trust Radius=3.00D-01 FncErr=1.00D-07 GrdErr=1.00D-07 EigMax=2.50D+02 EigMin=1.00D-04
 Number of steps in this run=     20 maximum allowed number of steps=    100.
 GradGradGradGradGradGradGradGradGradGradGradGradGradGradGradGradGradGrad

 Leave Link  103 at Wed Jun 19 08:44:06 2024, MaxMem=  1572864000 cpu:               0.1 elap:               0.0
 (Enter /software/sse/easybuild/prefix/software/Gaussian/16.C.01-avx2-nsc1/g16/l202.exe)
                          Input orientation:                          
 ---------------------------------------------------------------------
 Center     Atomic      Atomic             Coordinates (Angstroms)
 Number     Number       Type             X           Y           Z
 ---------------------------------------------------------------------
      1          8           0       -1.137576   -0.206870    0.000000
      2          8           0        1.137597   -0.206755    0.000000
      3          6           0       -0.000016    0.307620    0.000000
      4          1           0       -0.000074    1.463278    0.000000
 ---------------------------------------------------------------------
                    Distance matrix (angstroms):
                    1          2          3          4
     1  O    0.000000
     2  O    2.275173   0.000000
     3  C    1.248496   1.248497   0.000000
     4  H    2.020719   2.020719   1.155658   0.000000
 Stoichiometry    CHO2(1-)
 Framework group  C2V[C2(CH),SGV(O2)]
 Deg. of freedom     3
 Full point group                 C2V     NOp   4
 Largest Abelian subgroup         C2V     NOp   4
 Largest concise Abelian subgroup C2      NOp   2
                         Standard orientation:                         
 ---------------------------------------------------------------------
 Center     Atomic      Atomic             Coordinates (Angstroms)
 Number     Number       Type             X           Y           Z
 ---------------------------------------------------------------------
      1          8           0       -0.000000   -1.137586   -0.206812
      2          8           0        0.000000    1.137586   -0.206812
      3          6           0        0.000000    0.000000    0.307620
      4          1           0        0.000000    0.000000    1.463278
 ---------------------------------------------------------------------
 Rotational constants (GHZ):         109.5069181          12.2077753          10.9833564
 Leave Link  202 at Wed Jun 19 08:44:07 2024, MaxMem=  1572864000 cpu:               0.1 elap:               0.0
 (Enter /software/sse/easybuild/prefix/software/Gaussian/16.C.01-avx2-nsc1/g16/l301.exe)
 Standard basis: Aug-CC-pVTZ (5D, 7F)
 Ernie: Thresh=  0.10000D-02 Tol=  0.10000D-05 Strict=F.
 Ernie:  9 primitive shells out of 101 were deleted.
 There are    74 symmetry adapted cartesian basis functions of A1  symmetry.
 There are    25 symmetry adapted cartesian basis functions of A2  symmetry.
 There are    36 symmetry adapted cartesian basis functions of B1  symmetry.
 There are    55 symmetry adapted cartesian basis functions of B2  symmetry.
 There are    60 symmetry adapted basis functions of A1  symmetry.
 There are    23 symmetry adapted basis functions of A2  symmetry.
 There are    32 symmetry adapted basis functions of B1  symmetry.
 There are    46 symmetry adapted basis functions of B2  symmetry.
   161 basis functions,   243 primitive gaussians,   190 cartesian basis functions
    12 alpha electrons       12 beta electrons
       nuclear repulsion energy        62.5127825335 Hartrees.
 IExCor=    0 DFT=F Ex=HF Corr=None ExCW=0 ScaHFX=  1.000000
 ScaDFX=  1.000000  1.000000  1.000000  1.000000 ScalE2=  1.000000  1.000000
 IRadAn=      5 IRanWt=     -1 IRanGd=            0 ICorTp=0 IEmpDi=  4
 NAtoms=    4 NActive=    4 NUniq=    3 SFac= 1.78D+00 NAtFMM=   60 NAOKFM=F Big=F
 Integral buffers will be    131072 words long.
 Raffenetti 1 integral format.
 Two-electron integral symmetry is turned on.
 Leave Link  301 at Wed Jun 19 08:44:07 2024, MaxMem=  1572864000 cpu:               0.4 elap:               0.1
 (Enter /software/sse/easybuild/prefix/software/Gaussian/16.C.01-avx2-nsc1/g16/l302.exe)
 NPDir=0 NMtPBC=     1 NCelOv=     1 NCel=       1 NClECP=     1 NCelD=      1
         NCelK=      1 NCelE2=     1 NClLst=     1 CellRange=     0.0.
 One-electron integrals computed using PRISM.
 One-electron integral symmetry used in STVInt
 NBasis=   161 RedAO= T EigKep=  1.08D-04  NBF=    60    23    32    46
 NBsUse=   161 1.00D-06 EigRej= -1.00D+00 NBFU=    60    23    32    46
 Leave Link  302 at Wed Jun 19 08:44:08 2024, MaxMem=  1572864000 cpu:               0.8 elap:               0.1
 (Enter /software/sse/easybuild/prefix/software/Gaussian/16.C.01-avx2-nsc1/g16/l303.exe)
 DipDrv:  MaxL=1.
 Leave Link  303 at Wed Jun 19 08:44:08 2024, MaxMem=  1572864000 cpu:               0.2 elap:               0.0
 (Enter /software/sse/easybuild/prefix/software/Gaussian/16.C.01-avx2-nsc1/g16/l401.exe)
 ExpMin= 2.53D-02 ExpMax= 1.53D+04 ExpMxC= 5.22D+02 IAcc=3 IRadAn=         5 AccDes= 0.00D+00
 Harris functional with IExCor=  205 and IRadAn=       5 diagonalized for initial guess.
 HarFok:  IExCor=  205 AccDes= 0.00D+00 IRadAn=         5 IDoV= 1 UseB2=F ITyADJ=14
 ICtDFT=  3500011 ScaDFX=  1.000000  1.000000  1.000000  1.000000
 FoFCou: FMM=F IPFlag=           0 FMFlag=      100000 FMFlg1=           0
         NFxFlg=           0 DoJE=T BraDBF=F KetDBF=T FulRan=T
         wScrn=  0.000000 ICntrl=       500 IOpCl=  0 I1Cent=   200000004 NGrid=           0
         NMat0=    1 NMatS0=      1 NMatT0=    0 NMatD0=    1 NMtDS0=    0 NMtDT0=    0
 Petite list used in FoFCou.
 Harris En= -188.577009032367    
 JPrj=0 DoOrth=F DoCkMO=F.
 Initial guess orbital symmetries:
       Occupied  (A1) (B2) (A1) (A1) (B2) (A1) (A1) (B2) (B1) (A2)
                 (B2) (A1)
       Virtual   (B1) (A1) (A1) (B2) (B1) (A1) (A1) (B2) (A1) (A2)
                 (B1) (A1) (B2) (B2) (B1) (A1) (A1) (B2) (B1) (A1)
                 (A1) (A2) (B2) (A1) (B1) (B2) (A1) (B2) (A1) (A2)
                 (B2) (A1) (B1) (A2) (A1) (B1) (B1) (A1) (B2) (B2)
                 (A1) (B2) (B1) (A2) (A1) (A2) (A1) (B2) (A1) (B1)
                 (B2) (A1) (B1) (B2) (A1) (A2) (B1) (B2) (A1) (A2)
                 (A1) (A1) (B2) (B1) (B2) (A1) (B2) (A2) (A1) (B1)
                 (A2) (B1) (B2) (B1) (A1) (A1) (B2) (A1) (A2) (B2)
                 (B2) (A1) (B1) (A2) (B2) (A1) (B2) (B1) (A2) (B2)
                 (A1) (A1) (B1) (B1) (A1) (B2) (A1) (A2) (B1) (A1)
                 (B1) (B2) (A1) (A2) (A1) (B2) (A1) (A2) (A1) (B2)
                 (B1) (A1) (A2) (B2) (B1) (A1) (B1) (B2) (A1) (B2)
                 (B2) (A1) (A2) (B2) (A1) (B1) (A1) (A2) (B1) (B2)
                 (A1) (B1) (A2) (B2) (A1) (A2) (B1) (B2) (B1) (A1)
                 (B2) (A2) (B2) (A1) (A1) (B2) (B2) (A1) (A1)
 The electronic state of the initial guess is 1-A1.
 Leave Link  401 at Wed Jun 19 08:44:09 2024, MaxMem=  1572864000 cpu:               1.4 elap:               0.2
 (Enter /software/sse/easybuild/prefix/software/Gaussian/16.C.01-avx2-nsc1/g16/l502.exe)
 Keep R1 ints in memory in symmetry-blocked form, NReq=106592199.
 FoFCou: FMM=F IPFlag=           0 FMFlag=           0 FMFlg1=           0
         NFxFlg=           0 DoJE=F BraDBF=F KetDBF=F FulRan=T
         wScrn=  0.000000 ICntrl=       600 IOpCl=  0 I1Cent=           0 NGrid=           0
         NMat0=    1 NMatS0=  13041 NMatT0=    0 NMatD0=    1 NMtDS0=    0 NMtDT0=    0
 Petite list used in FoFCou.
 Closed shell SCF:
 Using DIIS extrapolation, IDIIS=  1040.
 NGot=  1572864000 LenX=  1551237756 LenY=  1551201215
 Requested convergence on RMS density matrix=1.00D-08 within 128 cycles.
 Requested convergence on MAX density matrix=1.00D-06.
 Requested convergence on             energy=1.00D-06.
 No special actions if energy rises.

 Cycle   1  Pass 1  IDiag  1:
 E= -188.089794600015    
 DIIS: error= 5.86D-02 at cycle   1 NSaved=   1.
 NSaved= 1 IEnMin= 1 EnMin= -188.089794600015     IErMin= 1 ErrMin= 5.86D-02
 ErrMax= 5.86D-02  0.00D+00 EMaxC= 1.00D-01 BMatC= 4.21D-01 BMatP= 4.21D-01
 IDIUse=3 WtCom= 4.14D-01 WtEn= 5.86D-01
 Coeff-Com:  0.100D+01
 Coeff-En:   0.100D+01
 Coeff:      0.100D+01
 Gap=     0.262 Goal=   None    Shift=    0.000
 GapD=    0.262 DampG=1.000 DampE=0.500 DampFc=0.5000 IDamp=-1.
 Damping current iteration by 5.00D-01
 RMSDP=2.33D-03 MaxDP=4.61D-02              OVMax= 1.53D-01

 Cycle   2  Pass 1  IDiag  1:
 E= -188.186291569367     Delta-E=       -0.096496969351 Rises=F Damp=T
 DIIS: error= 1.97D-02 at cycle   2 NSaved=   2.
 NSaved= 2 IEnMin= 2 EnMin= -188.186291569367     IErMin= 2 ErrMin= 1.97D-02
 ErrMax= 1.97D-02  0.00D+00 EMaxC= 1.00D-01 BMatC= 7.31D-02 BMatP= 4.21D-01
 IDIUse=3 WtCom= 8.03D-01 WtEn= 1.97D-01
 Coeff-Com: -0.436D+00 0.144D+01
 Coeff-En:   0.000D+00 0.100D+01
 Coeff:     -0.350D+00 0.135D+01
 Gap=     0.341 Goal=   None    Shift=    0.000
 RMSDP=7.86D-04 MaxDP=2.57D-02 DE=-9.65D-02 OVMax= 6.35D-02

 Cycle   3  Pass 1  IDiag  1:
 E= -188.271950374710     Delta-E=       -0.085658805344 Rises=F Damp=F
 DIIS: error= 6.30D-03 at cycle   3 NSaved=   3.
 NSaved= 3 IEnMin= 3 EnMin= -188.271950374710     IErMin= 3 ErrMin= 6.30D-03
 ErrMax= 6.30D-03  0.00D+00 EMaxC= 1.00D-01 BMatC= 3.11D-03 BMatP= 7.31D-02
 IDIUse=3 WtCom= 9.37D-01 WtEn= 6.30D-02
 Coeff-Com: -0.135D+00 0.225D+00 0.910D+00
 Coeff-En:   0.000D+00 0.000D+00 0.100D+01
 Coeff:     -0.126D+00 0.210D+00 0.916D+00
 Gap=     0.333 Goal=   None    Shift=    0.000
 RMSDP=1.72D-04 MaxDP=6.50D-03 DE=-8.57D-02 OVMax= 9.73D-03

 Cycle   4  Pass 1  IDiag  1:
 E= -188.273847761319     Delta-E=       -0.001897386608 Rises=F Damp=F
 DIIS: error= 1.22D-03 at cycle   4 NSaved=   4.
 NSaved= 4 IEnMin= 4 EnMin= -188.273847761319     IErMin= 4 ErrMin= 1.22D-03
 ErrMax= 1.22D-03  0.00D+00 EMaxC= 1.00D-01 BMatC= 1.09D-04 BMatP= 3.11D-03
 IDIUse=3 WtCom= 9.88D-01 WtEn= 1.22D-02
 Coeff-Com: -0.208D-01 0.258D-01 0.206D+00 0.789D+00
 Coeff-En:   0.000D+00 0.000D+00 0.000D+00 0.100D+01
 Coeff:     -0.205D-01 0.255D-01 0.203D+00 0.792D+00
 Gap=     0.330 Goal=   None    Shift=    0.000
 RMSDP=4.08D-05 MaxDP=1.04D-03 DE=-1.90D-03 OVMax= 4.41D-03

 Cycle   5  Pass 1  IDiag  1:
 E= -188.273965959151     Delta-E=       -0.000118197833 Rises=F Damp=F
 DIIS: error= 5.35D-04 at cycle   5 NSaved=   5.
 NSaved= 5 IEnMin= 5 EnMin= -188.273965959151     IErMin= 5 ErrMin= 5.35D-04
 ErrMax= 5.35D-04  0.00D+00 EMaxC= 1.00D-01 BMatC= 1.06D-05 BMatP= 1.09D-04
 IDIUse=3 WtCom= 9.95D-01 WtEn= 5.35D-03
 Coeff-Com:  0.131D-01-0.202D-01-0.117D+00-0.538D-01 0.118D+01
 Coeff-En:   0.000D+00 0.000D+00 0.000D+00 0.000D+00 0.100D+01
 Coeff:      0.131D-01-0.200D-01-0.117D+00-0.535D-01 0.118D+01
 Gap=     0.330 Goal=   None    Shift=    0.000
 RMSDP=2.23D-05 MaxDP=6.55D-04 DE=-1.18D-04 OVMax= 1.41D-03

 Cycle   6  Pass 1  IDiag  1:
 E= -188.273982711079     Delta-E=       -0.000016751928 Rises=F Damp=F
 DIIS: error= 9.05D-05 at cycle   6 NSaved=   6.
 NSaved= 6 IEnMin= 6 EnMin= -188.273982711079     IErMin= 6 ErrMin= 9.05D-05
 ErrMax= 9.05D-05  0.00D+00 EMaxC= 1.00D-01 BMatC= 4.51D-07 BMatP= 1.06D-05
 IDIUse=1 WtCom= 1.00D+00 WtEn= 0.00D+00
 Coeff-Com: -0.150D-02 0.275D-02 0.102D-01-0.155D-01-0.284D+00 0.129D+01
 Coeff:     -0.150D-02 0.275D-02 0.102D-01-0.155D-01-0.284D+00 0.129D+01
 Gap=     0.330 Goal=   None    Shift=    0.000
 RMSDP=5.79D-06 MaxDP=1.31D-04 DE=-1.68D-05 OVMax= 5.13D-04

 Cycle   7  Pass 1  IDiag  1:
 E= -188.273983848748     Delta-E=       -0.000001137669 Rises=F Damp=F
 DIIS: error= 1.50D-05 at cycle   7 NSaved=   7.
 NSaved= 7 IEnMin= 7 EnMin= -188.273983848748     IErMin= 7 ErrMin= 1.50D-05
 ErrMax= 1.50D-05  0.00D+00 EMaxC= 1.00D-01 BMatC= 2.03D-08 BMatP= 4.51D-07
 IDIUse=1 WtCom= 1.00D+00 WtEn= 0.00D+00
 Coeff-Com: -0.652D-03 0.995D-03 0.542D-02 0.569D-02-0.205D-01-0.216D+00
 Coeff-Com:  0.122D+01
 Coeff:     -0.652D-03 0.995D-03 0.542D-02 0.569D-02-0.205D-01-0.216D+00
 Coeff:      0.122D+01
 Gap=     0.330 Goal=   None    Shift=    0.000
 RMSDP=1.30D-06 MaxDP=2.99D-05 DE=-1.14D-06 OVMax= 1.25D-04

 Cycle   8  Pass 1  IDiag  1:
 E= -188.273983901949     Delta-E=       -0.000000053202 Rises=F Damp=F
 DIIS: error= 2.88D-06 at cycle   8 NSaved=   8.
 NSaved= 8 IEnMin= 8 EnMin= -188.273983901949     IErMin= 8 ErrMin= 2.88D-06
 ErrMax= 2.88D-06  0.00D+00 EMaxC= 1.00D-01 BMatC= 9.74D-10 BMatP= 2.03D-08
 IDIUse=1 WtCom= 1.00D+00 WtEn= 0.00D+00
 Coeff-Com:  0.159D-03-0.257D-03-0.142D-02-0.693D-04 0.183D-01-0.416D-01
 Coeff-Com: -0.149D+00 0.117D+01
 Coeff:      0.159D-03-0.257D-03-0.142D-02-0.693D-04 0.183D-01-0.416D-01
 Coeff:     -0.149D+00 0.117D+01
 Gap=     0.330 Goal=   None    Shift=    0.000
 RMSDP=2.77D-07 MaxDP=4.77D-06 DE=-5.32D-08 OVMax= 2.94D-05

 Cycle   9  Pass 1  IDiag  1:
 E= -188.273983904646     Delta-E=       -0.000000002697 Rises=F Damp=F
 DIIS: error= 8.51D-07 at cycle   9 NSaved=   9.
 NSaved= 9 IEnMin= 9 EnMin= -188.273983904646     IErMin= 9 ErrMin= 8.51D-07
 ErrMax= 8.51D-07  0.00D+00 EMaxC= 1.00D-01 BMatC= 6.96D-11 BMatP= 9.74D-10
 IDIUse=1 WtCom= 1.00D+00 WtEn= 0.00D+00
 Coeff-Com:  0.207D-04-0.293D-04-0.148D-03-0.142D-03-0.189D-02 0.210D-01
 Coeff-Com: -0.420D-01-0.286D+00 0.131D+01
 Coeff:      0.207D-04-0.293D-04-0.148D-03-0.142D-03-0.189D-02 0.210D-01
 Coeff:     -0.420D-01-0.286D+00 0.131D+01
 Gap=     0.330 Goal=   None    Shift=    0.000
 RMSDP=9.21D-08 MaxDP=1.69D-06 DE=-2.70D-09 OVMax= 9.40D-06

 Cycle  10  Pass 1  IDiag  1:
 E= -188.273983904870     Delta-E=       -0.000000000224 Rises=F Damp=F
 DIIS: error= 1.93D-07 at cycle  10 NSaved=  10.
 NSaved=10 IEnMin=10 EnMin= -188.273983904870     IErMin=10 ErrMin= 1.93D-07
 ErrMax= 1.93D-07  0.00D+00 EMaxC= 1.00D-01 BMatC= 3.03D-12 BMatP= 6.96D-11
 IDIUse=1 WtCom= 1.00D+00 WtEn= 0.00D+00
 Coeff-Com: -0.110D-04 0.172D-04 0.859D-04 0.730D-04-0.133D-03-0.477D-02
 Coeff-Com:  0.188D-01 0.291D-01-0.372D+00 0.133D+01
 Coeff:     -0.110D-04 0.172D-04 0.859D-04 0.730D-04-0.133D-03-0.477D-02
 Coeff:      0.188D-01 0.291D-01-0.372D+00 0.133D+01
 Gap=     0.330 Goal=   None    Shift=    0.000
 RMSDP=3.12D-08 MaxDP=6.47D-07 DE=-2.24D-10 OVMax= 2.08D-06

 Cycle  11  Pass 1  IDiag  1:
 E= -188.273983904881     Delta-E=       -0.000000000011 Rises=F Damp=F
 DIIS: error= 3.85D-08 at cycle  11 NSaved=  11.
 NSaved=11 IEnMin=11 EnMin= -188.273983904881     IErMin=11 ErrMin= 3.85D-08
 ErrMax= 3.85D-08  0.00D+00 EMaxC= 1.00D-01 BMatC= 1.40D-13 BMatP= 3.03D-12
 IDIUse=1 WtCom= 1.00D+00 WtEn= 0.00D+00
 Coeff-Com:  0.270D-05-0.439D-05-0.222D-04-0.154D-04 0.113D-03 0.736D-03
 Coeff-Com: -0.456D-02 0.347D-02 0.607D-01-0.441D+00 0.138D+01
 Coeff:      0.270D-05-0.439D-05-0.222D-04-0.154D-04 0.113D-03 0.736D-03
 Coeff:     -0.456D-02 0.347D-02 0.607D-01-0.441D+00 0.138D+01
 Gap=     0.330 Goal=   None    Shift=    0.000
 RMSDP=7.24D-09 MaxDP=1.29D-07 DE=-1.08D-11 OVMax= 4.08D-07

 SCF Done:  E(RHF) =  -188.273983905     A.U. after   11 cycles
            NFock= 11  Conv=0.72D-08     -V/T= 2.0016
 KE= 1.879716723249D+02 PE=-5.770817133270D+02 EE= 1.383232745638D+02
 Leave Link  502 at Wed Jun 19 08:44:11 2024, MaxMem=  1572864000 cpu:               9.7 elap:               1.3
 (Enter /software/sse/easybuild/prefix/software/Gaussian/16.C.01-avx2-nsc1/g16/l801.exe)
 Range of M.O.s used for correlation:     1   161
 NBasis=   161 NAE=    12 NBE=    12 NFC=     0 NFV=     0
 NROrb=    161 NOA=    12 NOB=    12 NVA=   149 NVB=   149

 **** Warning!!: The largest alpha MO coefficient is  0.31729628D+02

 Leave Link  801 at Wed Jun 19 08:44:11 2024, MaxMem=  1572864000 cpu:               0.2 elap:               0.1
 (Enter /software/sse/easybuild/prefix/software/Gaussian/16.C.01-avx2-nsc1/g16/l1101.exe)
 Using compressed storage, NAtomX=     4.
 Will process      5 centers per pass.
 Leave Link 1101 at Wed Jun 19 08:44:11 2024, MaxMem=  1572864000 cpu:               0.9 elap:               0.1
 (Enter /software/sse/easybuild/prefix/software/Gaussian/16.C.01-avx2-nsc1/g16/l1102.exe)
 Symmetrizing basis deriv contribution to polar:
 IMax=3 JMax=2 DiffMx= 0.00D+00
 Leave Link 1102 at Wed Jun 19 08:44:11 2024, MaxMem=  1572864000 cpu:               0.2 elap:               0.1
 (Enter /software/sse/easybuild/prefix/software/Gaussian/16.C.01-avx2-nsc1/g16/l1110.exe)
 Forming Gx(P) for the SCF density, NAtomX=     4.
 Integral derivatives from FoFJK, PRISM(SPDF).
 Do as many integral derivatives as possible in FoFJK.
 G2DrvN: MDV=    1572863460.
 G2DrvN: will do     5 centers at a time, making    1 passes.
 Calling FoFCou, ICntrl=  3107 FMM=F I1Cent=   0 AccDes= 0.00D+00.
 FoFJK:  IHMeth= 1 ICntrl=    3107 DoSepK=F KAlg= 0 I1Cent=           0 FoldK=F
 IRaf=         0 NMat=       1 IRICut=       1 DoRegI=T DoRafI=F ISym2E= 1 IDoP0=0 IntGTp=1.
 FoFCou: FMM=F IPFlag=           0 FMFlag=      100000 FMFlg1=           0
         NFxFlg=           0 DoJE=F BraDBF=F KetDBF=F FulRan=T
         wScrn=  0.000000 ICntrl=      3107 IOpCl=  0 I1Cent=           0 NGrid=           0
         NMat0=    1 NMatS0=      1 NMatT0=    0 NMatD0=    1 NMtDS0=    0 NMtDT0=    0
 Petite list used in FoFCou.
 End of G2Drv F.D. properties file   721 does not exist.
 End of G2Drv F.D. properties file   722 does not exist.
 End of G2Drv F.D. properties file   788 does not exist.
 Leave Link 1110 at Wed Jun 19 08:44:13 2024, MaxMem=  1572864000 cpu:              13.1 elap:               1.7
 (Enter /software/sse/easybuild/prefix/software/Gaussian/16.C.01-avx2-nsc1/g16/l1002.exe)
 Minotr:  Closed shell wavefunction.
          IDoAtm=1111
          Direct CPHF calculation.
          Differentiating once with respect to electric field.
                with respect to dipole field.
          Differentiating once with respect to nuclear coordinates.
          Using symmetry in CPHF.
          Requested convergence is 1.0D-08 RMS, and 1.0D-07 maximum.
          Secondary convergence is 1.0D-12 RMS, and 1.0D-12 maximum.
          NewPWx=T KeepS1=F KeepF1=F KeepIn=T MapXYZ=F SortEE=F KeepMc=T.
 Keep R1 ints in memory in symmetry-blocked form, NReq=106593234.
 FoFCou: FMM=F IPFlag=           0 FMFlag=           0 FMFlg1=           0
         NFxFlg=           0 DoJE=F BraDBF=F KetDBF=F FulRan=T
         wScrn=  0.000000 ICntrl=       600 IOpCl=  0 I1Cent=           0 NGrid=           0
         NMat0=    1 NMatS0=  13041 NMatT0=    0 NMatD0=    1 NMtDS0=    0 NMtDT0=    0
 Petite list used in FoFCou.
          MDV=    1572864000 using IRadAn=       1.
          Solving linear equations simultaneously, MaxMat=       0.
          There are    12 degrees of freedom in the 1st order CPHF.  IDoFFX=4 NUNeed=    12.
     12 vectors produced by pass  0 Test12= 1.49D-14 8.33D-09 XBig12= 8.86D+00 1.31D+00.
 AX will form    12 AO Fock derivatives at one time.
     12 vectors produced by pass  1 Test12= 1.49D-14 8.33D-09 XBig12= 1.10D+00 2.61D-01.
     12 vectors produced by pass  2 Test12= 1.49D-14 8.33D-09 XBig12= 2.96D-02 3.64D-02.
     12 vectors produced by pass  3 Test12= 1.49D-14 8.33D-09 XBig12= 7.95D-04 6.46D-03.
     12 vectors produced by pass  4 Test12= 1.49D-14 8.33D-09 XBig12= 1.35D-05 8.24D-04.
     12 vectors produced by pass  5 Test12= 1.49D-14 8.33D-09 XBig12= 2.19D-07 1.48D-04.
     12 vectors produced by pass  6 Test12= 1.49D-14 8.33D-09 XBig12= 2.16D-09 1.58D-05.
      7 vectors produced by pass  7 Test12= 1.49D-14 8.33D-09 XBig12= 2.12D-11 1.04D-06.
      4 vectors produced by pass  8 Test12= 1.49D-14 8.33D-09 XBig12= 1.89D-13 9.54D-08.
      1 vectors produced by pass  9 Test12= 1.49D-14 8.33D-09 XBig12= 1.75D-15 1.13D-08.
 InvSVY:  IOpt=1 It=  1 EMax= 4.44D-16
 Solved reduced A of dimension    96 with    12 vectors.
 FullF1:  Do perturbations      1 to      12.
 Isotropic polarizability for W=    0.000000       27.31 Bohr**3.
 End of Minotr F.D. properties file   721 does not exist.
 End of Minotr F.D. properties file   722 does not exist.
 End of Minotr F.D. properties file   788 does not exist.
 Leave Link 1002 at Wed Jun 19 08:44:15 2024, MaxMem=  1572864000 cpu:              12.5 elap:               1.6
 (Enter /software/sse/easybuild/prefix/software/Gaussian/16.C.01-avx2-nsc1/g16/l601.exe)
 Copying SCF densities to generalized density rwf, IOpCl= 0 IROHF=0.
 SCF density gives NOpUse=  4 NOpAll=  4.

 **********************************************************************

            Population analysis using the SCF Density.

 **********************************************************************

 Orbital symmetries:
 BldTbl:  Degeneracy threshold= 1.00D-02
       Occupied  (B2) (A1) (A1) (A1) (B2) (A1) (A1) (B2) (B1) (B2)
                 (A2) (A1)
       Virtual   (A1) (B2) (B1) (A1) (A1) (B2) (A1) (A2) (B1) (A1)
                 (B2) (A1) (B1) (B2) (B1) (A1) (B2) (A1) (A1) (B1)
                 (A2) (A1) (B2) (B1) (A1) (B2) (A1) (B2) (A1) (A2)
                 (A1) (B2) (B1) (A1) (A2) (B1) (B2) (A1) (B1) (B2)
                 (A1) (A2) (A1) (B1) (B2) (A1) (A2) (B2) (B1) (A1)
                 (B2) (B1) (A1) (B2) (A1) (A2) (B1) (A1) (B2) (A2)
                 (A1) (A1) (B2) (B1) (A1) (B2) (A2) (B2) (A1) (B1)
                 (A2) (B1) (B1) (A1) (B2) (A1) (B2) (A1) (A2) (B2)
                 (A1) (B2) (A2) (B1) (B2) (A1) (B2) (A2) (B1) (B2)
                 (A1) (A1) (B1) (B1) (A1) (B2) (A2) (A1) (B1) (A1)
                 (A1) (B1) (B2) (A1) (A2) (B2) (A2) (A1) (B2) (A1)
                 (B1) (B2) (A1) (B1) (A2) (B1) (B2) (A1) (A1) (B2)
                 (B2) (A1) (A2) (B2) (A1) (B1) (A1) (A2) (B1) (B2)
                 (A1) (B1) (A2) (B2) (A2) (A1) (B2) (B1) (A1) (B1)
                 (A2) (B2) (B2) (A1) (A1) (B2) (B2) (A1) (A1)
 The electronic state is 1-A1.
 Alpha  occ. eigenvalues --  -20.28974 -20.28971 -11.12629  -1.16017  -1.06582
 Alpha  occ. eigenvalues --   -0.54794  -0.42989  -0.39049  -0.34486  -0.21152
 Alpha  occ. eigenvalues --   -0.18958  -0.18575
 Alpha virt. eigenvalues --    0.14466   0.21303   0.21410   0.21664   0.28165
 Alpha virt. eigenvalues --    0.31777   0.32735   0.33743   0.36675   0.37230
 Alpha virt. eigenvalues --    0.39123   0.41635   0.42330   0.45769   0.49425
 Alpha virt. eigenvalues --    0.49900   0.51688   0.54336   0.58098   0.58976
 Alpha virt. eigenvalues --    0.62116   0.69813   0.69928   0.71986   0.77519
 Alpha virt. eigenvalues --    0.82569   0.86840   0.92508   0.92959   0.95956
 Alpha virt. eigenvalues --    1.00559   1.01089   1.05222   1.05467   1.06295
 Alpha virt. eigenvalues --    1.10225   1.12453   1.12469   1.13532   1.15986
 Alpha virt. eigenvalues --    1.21141   1.21996   1.22281   1.25706   1.26822
 Alpha virt. eigenvalues --    1.27686   1.32448   1.38297   1.43418   1.43454
 Alpha virt. eigenvalues --    1.45016   1.55522   1.57478   1.63723   1.65517
 Alpha virt. eigenvalues --    1.70762   1.77350   1.78913   1.81070   1.87738
 Alpha virt. eigenvalues --    1.93075   2.00132   2.06721   2.13171   2.19188
 Alpha virt. eigenvalues --    2.22778   2.41206   2.41281   2.45600   2.51088
 Alpha virt. eigenvalues --    2.57844   2.61451   2.63820   2.64187   2.64892
 Alpha virt. eigenvalues --    2.70381   2.73079   2.73485   2.81688   2.83995
 Alpha virt. eigenvalues --    2.86535   2.88589   2.89379   2.91119   2.96810
 Alpha virt. eigenvalues --    3.09999   3.12693   3.14751   3.15868   3.29269
 Alpha virt. eigenvalues --    3.29704   3.40881   3.42586   3.56082   3.66441
 Alpha virt. eigenvalues --    3.80639   3.81118   3.81284   4.04502   4.10342
 Alpha virt. eigenvalues --    4.17645   4.27793   4.27923   4.30591   4.30912
 Alpha virt. eigenvalues --    4.48615   4.52811   4.53826   4.77312   4.80049
 Alpha virt. eigenvalues --    4.85015   5.18650   5.20557   5.21732   5.29177
 Alpha virt. eigenvalues --    5.41545   5.41610   5.42102   5.76729   6.09634
 Alpha virt. eigenvalues --    6.53746   6.56038   6.84218   6.85310   6.87303
 Alpha virt. eigenvalues --    6.87609   7.07421   7.09807   7.10862   7.19727
 Alpha virt. eigenvalues --    7.30273   7.32116   7.39208   7.43211   7.44283
 Alpha virt. eigenvalues --    7.48223   7.53723   7.55102   7.78973   7.79336
 Alpha virt. eigenvalues --    7.85748   7.86036   7.94685   8.02465   8.18313
 Alpha virt. eigenvalues --    8.22913  13.82572  15.38418  16.49890
          Condensed to atoms (all electrons):
               1          2          3          4
     1  O    8.417695  -0.113974   0.419507  -0.045564
     2  O   -0.113974   8.417695   0.419507  -0.045564
     3  C    0.419507   0.419507   4.827285   0.304784
     4  H   -0.045564  -0.045564   0.304784   0.459935
 Mulliken charges:
               1
     1  O   -0.677664
     2  O   -0.677664
     3  C    0.028918
     4  H    0.326409
 Sum of Mulliken charges =  -1.00000
 Mulliken charges with hydrogens summed into heavy atoms:
               1
     1  O   -0.677664
     2  O   -0.677664
     3  C    0.355327
 APT charges:
               1
     1  O   -1.161052
     2  O   -1.161052
     3  C    1.533006
     4  H   -0.210901
 Sum of APT charges =  -1.00000
 APT charges with hydrogens summed into heavy atoms:
               1
     1  O   -1.161052
     2  O   -1.161052
     3  C    1.322104
 DipInt: DoE/N= T F RetVal/Mat= T F Init=T NMatP=  1 IDeriv=0 Min/MaxMlt=  0  4
 Entering OneElI...
 OneElI was handed  1572769359 working-precision words.
 Multipole integrals L=0 to 4 MinM= 0 MaxM= 0.
 Requested accuracy = 0.1000D-12
 ShPair: Thresh= 1.00D-13 NBox=     0 BxSize= 0.00D+00 RnKept= 4.30D+00
         NSMCal=                 1326 NSMKep=                1325
 PrmmSu-InSpLW:  IPartL=    0 NPrtUS=    1 NPrtUL=    1 DoSpLW=F IThBeg=    0 IThEnd=    0 NThAct=    1.
 PrSmSu:  IncTry=   512 NBBP=           1325 NTPThr=   100 NPartT=    1 Incr=          13 LDynOK=F GPUOK=F.
 PrsmSu:  NPrtUS=   1 ThrOK=F IAlg=2 LenDen=           0 ISkipM=0 DoSpLW=F IThBeg=    0 IThEnd=    0.
 Prism:   IPart=     0 DynPar=F LinDyn=F Incr=          13.
 PRISM was handed  1572654767 working-precision words and  1325 shell-pairs
 IPart=  0 NShTot=        1325 NBatch=          50 AvBLen=        26.5
 PrsmSu-ThDecC:  IPartSL=    0    0 NPrtUSL=    1    1 IThBeg=    0 IThEnd=    0 CPU=   -1 GPU=   -1 NThAct=    1.
 PrSmSu:  NxtVal=             14.
 Electronic moments (au):
        -24.00000000         -0.00000000          0.00000000          0.66326070
        -14.04987437        -95.92622433        -27.28025013         -0.00000000
          0.00000000         -0.00000000         -0.00000000          0.00000000
        -23.67317187         -0.00000000          0.00000000         -0.50334569
         -0.00000000          0.00000000         30.17410820          0.00000000
        -52.42051888       -705.62227835       -177.55886895         -0.00000000
          0.00000000         -0.00000000         -0.00000000          0.00000000
         -0.00000000        -65.67712613        -27.76952137        -86.54914187
         -0.00000000          0.00000000         -0.00000000
 Electronic spatial extent (au):  <R**2>=            137.2563
 DipInt: DoE/N= F T RetVal/Mat= T F Init=T NMatP=  1 IDeriv=0 Min/MaxMlt=  0  4
 Nuclear    moments (au):
         23.00000000          0.00000000         -0.00000000         -0.00000207
          0.00000000         73.94119506         12.11771540          0.00000000
         -0.00000000          0.00000000          0.00000000         -0.00000000
         21.36708966          0.00000000          0.00000000         -0.00000000
          0.00000000         -0.00000000        -28.89762019         -0.00000000
          0.00000000        341.70627040         59.52439200          0.00000000
         -0.00000000          0.00000000          0.00000000         -0.00000000
          0.00000000          0.00000000          0.00000000         11.29373757
         -0.00000000         -0.00000000          0.00000000
 Total      moments (au):
         -1.00000000         -0.00000000          0.00000000          0.66325863
        -14.04987437        -21.98502928        -15.16253473         -0.00000000
          0.00000000         -0.00000000         -0.00000000          0.00000000
         -2.30608221         -0.00000000          0.00000000         -0.50334569
         -0.00000000          0.00000000          1.27648801          0.00000000
        -52.42051888       -363.91600795       -118.03447695         -0.00000000
          0.00000000         -0.00000000         -0.00000000          0.00000000
         -0.00000000        -65.67712613        -27.76952137        -75.25540429
         -0.00000000          0.00000000         -0.00000000
 Charge=             -1.0000 electrons
 Dipole moment (field-independent basis, Debye):
    X=             -0.0000    Y=              0.0000    Z=              1.6858  Tot=              1.6858
 Quadrupole moment (field-independent basis, Debye-Ang):
   XX=            -18.8976   YY=            -29.5706   ZZ=            -20.3941
   XY=             -0.0000   XZ=              0.0000   YZ=             -0.0000
 Traceless Quadrupole moment (field-independent basis, Debye-Ang):
   XX=              4.0565   YY=             -6.6165   ZZ=              2.5600
   XY=             -0.0000   XZ=              0.0000   YZ=             -0.0000
 Octapole moment (field-independent basis, Debye-Ang**2):
  XXX=             -0.0000  YYY=              0.0000  ZZZ=             -1.6414  XYY=             -0.0000
  XXY=              0.0000  XXZ=             -0.3583  XZZ=             -0.0000  YZZ=              0.0000
  YYZ=              0.9086  XYZ=              0.0000
 Hexadecapole moment (field-independent basis, Debye-Ang**3):
 XXXX=            -19.7441 YYYY=           -137.0682 ZZZZ=            -44.4574 XXXY=             -0.0000
 XXXZ=              0.0000 YYYX=             -0.0000 YYYZ=             -0.0000 ZZZX=              0.0000
 ZZZY=             -0.0000 XXYY=            -24.7372 XXZZ=            -10.4593 YYZZ=            -28.3448
 XXYZ=             -0.0000 YYXZ=              0.0000 ZZXY=             -0.0000
 N-N= 6.251278253348D+01 E-N=-5.770817127249D+02  KE= 1.879716723249D+02
 Symmetry A1   KE= 1.069747365035D+02
 Symmetry A2   KE= 4.321708270281D+00
 Symmetry B1   KE= 3.320366067716D+00
 Symmetry B2   KE= 7.335486148338D+01
 SetAtRh:  ITypeU=  23 NETotI=      -1 ICharg=  0 NETot=      23.
 StAtR1:  I=    1 I1=    1 IA=  8 C=   8.0 OKShel=TTT
                                                  SSP
                                                  224
 StAtR1:  I=    2 I1=    2 IA=  8 C=   8.0 OKShel=TTT
                                                  SSP
                                                  224
 StAtR1:  I=    3 I1=    3 IA=  6 C=   6.0 OKShel=TTT
                                                  SSP
                                                  222
 StAtR1:  I=    4 I1=    4 IA=  1 C=   1.0 OKShel=T
                                                  S
                                                  1
          I=    1 IA=  8 I1=    1 NAtG=23 NE=   8.000 C=   8.000 Err=-3.68D-11
          I=    2 IA=  8 I1=    2 NAtG=23 NE=   8.000 C=   8.000 Err=-3.68D-11
          I=    3 IA=  6 I1=    3 NAtG=23 NE=   6.000 C=   6.000 Err= 1.75D-11
          I=    4 IA=  1 I1=    4 NAtG=20 NE=   1.000 C=   1.000 Err= 2.80D-12
 Pruned (  99, 590) grid will be used in numerical quadrature.
 Pruned (  99, 590) grid will be used in numerical quadrature.
 IPart=  0 IRanGd=          0 ScrnBf=T ScrnGd=T RCrit=4.00D+00 DoMicB=T.
 Pruned (  99, 590) grid will be used in numerical quadrature.
 IPart=  1 IRanGd=          0 ScrnBf=T ScrnGd=T RCrit=4.00D+00 DoMicB=T.
 Pruned (  99, 590) grid will be used in numerical quadrature.
 CutRad = 1000.00    CtRdIn =    0.00    XCrit =  15.00   ICut = 0
 CutRad = 1000.00    CtRdIn =    0.00    XCrit =  15.00   ICut = 0
 IPart=  7 IRanGd=          0 ScrnBf=T ScrnGd=T RCrit=4.00D+00 DoMicB=T.
 CutRad = 1000.00    CtRdIn =    0.00    XCrit =  15.00   ICut = 0
 IPart=  4 IRanGd=          0 ScrnBf=T ScrnGd=T RCrit=4.00D+00 DoMicB=T.
 CutRad = 1000.00    CtRdIn =    0.00    XCrit =  15.00   ICut = 0
 Pruned (  99, 590) grid will be used in numerical quadrature.
 IPart=  3 IRanGd=          0 ScrnBf=T ScrnGd=T RCrit=4.00D+00 DoMicB=T.
 CutRad = 1000.00    CtRdIn =    0.00    XCrit =  15.00   ICut = 0
 Pruned (  99, 590) grid will be used in numerical quadrature.
 Pruned (  99, 590) grid will be used in numerical quadrature.
 IPart=  0 Atom number   1 atomic number  8 has       23718 grid points.
 Pruned (  99, 590) grid will be used in numerical quadrature.
 IPart=  2 IRanGd=          0 ScrnBf=T ScrnGd=T RCrit=4.00D+00 DoMicB=T.
 IPart=  4 Atom number   1 atomic number  8 has       23718 grid points.
 CutRad = 1000.00    CtRdIn =    0.00    XCrit =  15.00   ICut = 0
 Pruned (  99, 590) grid will be used in numerical quadrature.
 Pruned (  99, 590) grid will be used in numerical quadrature.
 Pruned (  99, 590) grid will be used in numerical quadrature.
 IPart=  0 Atom   1 batch    4 overlaps    4 atoms,    50 shells and     4 DB shells.   NGrid=      1180
 IPart=  5 IRanGd=          0 ScrnBf=T ScrnGd=T RCrit=4.00D+00 DoMicB=T.
 CutRad = 1000.00    CtRdIn =    0.00    XCrit =  15.00   ICut = 0
 Pruned (  99, 590) grid will be used in numerical quadrature.
 IPart=  3 Atom number   1 atomic number  8 has       23718 grid points.
 Pruned (  99, 590) grid will be used in numerical quadrature.
 Symmetry reduced   590 angular points to   590 for atom    1.
 IPart=  2 Atom number   1 atomic number  8 has       23718 grid points.
 IPart=  1 Atom number   1 atomic number  8 has       23718 grid points.
 IPart=  2 Atom   1 batch    6 overlaps    4 atoms,    50 shells and     4 DB shells.   NGrid=      1180
 Pruned (  99, 590) grid will be used in numerical quadrature.
 IPart=  1 Atom   1 batch    3 overlaps    4 atoms,    50 shells and     4 DB shells.   NGrid=      2114
 IPart=  5 Atom number   1 atomic number  8 has       23718 grid points.
 IPart=  3 Atom   1 batch    5 overlaps    4 atoms,    50 shells and     4 DB shells.   NGrid=      1180
 IPart=  7 Atom number   1 atomic number  8 has       23718 grid points.
 IPart=  5 Atom   1 batch    7 overlaps    4 atoms,    50 shells and     4 DB shells.   NGrid=      1180
 Symmetry reduced   590 angular points to   590 for atom    1.
 IPart=  4 Atom   1 batch    2 overlaps    4 atoms,    50 shells and     4 DB shells.   NGrid=      2522
 Symmetry reduced   590 angular points to   590 for atom    1.
 Symmetry reduced   194 angular points to   194 for atom    1.
 IPart=  7 Atom   1 batch    1 overlaps    4 atoms,    50 shells and     4 DB shells.   NGrid=      2408
 Symmetry reduced   302 angular points to   302 for atom    1.
 Symmetry reduced    86 angular points to    86 for atom    1.
 Symmetry reduced   590 angular points to   590 for atom    1.
 Pruned (  99, 590) grid will be used in numerical quadrature.
 IPart=  6 IRanGd=          0 ScrnBf=T ScrnGd=T RCrit=4.00D+00 DoMicB=T.
 CutRad = 1000.00    CtRdIn =    0.00    XCrit =  15.00   ICut = 0
 Pruned (  99, 590) grid will be used in numerical quadrature.
 IPart=  6 Atom number   1 atomic number  8 has       23718 grid points.
 IPart=  6 Atom   1 batch    8 overlaps    4 atoms,    51 shells and     4 DB shells.   NGrid=      1180
 Symmetry reduced   590 angular points to   590 for atom    1.
 IPart=  0 Atom   1 batch    9 overlaps    4 atoms,    51 shells and     4 DB shells.   NGrid=      1180
 IPart=  3 Atom   1 batch   10 overlaps    4 atoms,    51 shells and     4 DB shells.   NGrid=      1180
 IPart=  6 Atom   1 batch   11 overlaps    4 atoms,    51 shells and     4 DB shells.   NGrid=      1180
 IPart=  2 Atom   1 batch   12 overlaps    4 atoms,    50 shells and     4 DB shells.   NGrid=       590
 IPart=  5 Atom   1 batch   13 overlaps    4 atoms,    50 shells and     4 DB shells.   NGrid=       604
 Symmetry reduced   302 angular points to   302 for atom    1.
 IPart=  2 Atom   1 batch   14 overlaps    4 atoms,    50 shells and     4 DB shells.   NGrid=       604
 Symmetry reduced   302 angular points to   302 for atom    1.
 IPart=  5 Atom   1 batch   15 overlaps    4 atoms,    47 shells and     4 DB shells.   NGrid=       604
 IPart=  1 Atom   1 batch   16 overlaps    4 atoms,    46 shells and     4 DB shells.   NGrid=       604
 IPart=  7 Atom   1 batch   17 overlaps    4 atoms,    44 shells and     4 DB shells.   NGrid=       604
 Symmetry reduced   302 angular points to   302 for atom    1.
 IPart=  4 Atom   1 batch   18 overlaps    4 atoms,    37 shells and     4 DB shells.   NGrid=       604
 Symmetry reduced   302 angular points to   302 for atom    1.
 IPart=  0 Atom   1 batch   19 overlaps    4 atoms,    29 shells and     4 DB shells.   NGrid=       604
 Symmetry reduced   302 angular points to   302 for atom    1.
 IPart=  3 Atom   1 batch   20 overlaps    4 atoms,    18 shells and     3 DB shells.   NGrid=       604
 Symmetry reduced   302 angular points to   302 for atom    1.
 IPart=  6 Atom   1 batch   21 overlaps    4 atoms,    12 shells and     2 DB shells.   NGrid=       604
 Symmetry reduced   302 angular points to   302 for atom    1.
 IPart=  5 Atom   1 batch   22 overlaps    4 atoms,     5 shells and     0 DB shells.   NGrid=       604
 IPart=  2 Atom   1 batch   23 overlaps    4 atoms,     1 shells and     0 DB shells.   NGrid=       604
 Pruned (  99, 590) grid will be used in numerical quadrature.
 IPart=  6 Atom number   2 atomic number  8 has       23718 grid points.
 IPart=  6 Atom   2 batch    1 overlaps    4 atoms,    50 shells and     4 DB shells.   NGrid=      2408
 Symmetry reduced    86 angular points to    86 for atom    2.
 Pruned (  99, 590) grid will be used in numerical quadrature.
 IPart=  3 Atom number   2 atomic number  8 has       23718 grid points.
 IPart=  3 Atom   2 batch    2 overlaps    4 atoms,    50 shells and     4 DB shells.   NGrid=      2522
 Symmetry reduced   194 angular points to   194 for atom    2.
 Pruned (  99, 590) grid will be used in numerical quadrature.
 IPart=  0 Atom number   2 atomic number  8 has       23718 grid points.
 IPart=  0 Atom   2 batch    3 overlaps    4 atoms,    50 shells and     4 DB shells.   NGrid=      2114
 Symmetry reduced   302 angular points to   302 for atom    2.
 Pruned (  99, 590) grid will be used in numerical quadrature.
 IPart=  7 Atom number   2 atomic number  8 has       23718 grid points.
 IPart=  7 Atom   2 batch    4 overlaps    4 atoms,    50 shells and     4 DB shells.   NGrid=      1180
 Pruned (  99, 590) grid will be used in numerical quadrature.
 Symmetry reduced   590 angular points to   590 for atom    2.
 IPart=  1 Atom number   2 atomic number  8 has       23718 grid points.
 IPart=  1 Atom   2 batch    5 overlaps    4 atoms,    50 shells and     4 DB shells.   NGrid=      1180
 Pruned (  99, 590) grid will be used in numerical quadrature.
 Symmetry reduced   590 angular points to   590 for atom    2.
 IPart=  2 Atom number   2 atomic number  8 has       23718 grid points.
 IPart=  2 Atom   2 batch    6 overlaps    4 atoms,    50 shells and     4 DB shells.   NGrid=      1180
 Symmetry reduced   590 angular points to   590 for atom    2.
 Pruned (  99, 590) grid will be used in numerical quadrature.
 IPart=  5 Atom number   2 atomic number  8 has       23718 grid points.
 IPart=  5 Atom   2 batch    7 overlaps    4 atoms,    50 shells and     4 DB shells.   NGrid=      1180
 Symmetry reduced   590 angular points to   590 for atom    2.
 Pruned (  99, 590) grid will be used in numerical quadrature.
 IPart=  4 Atom number   2 atomic number  8 has       23718 grid points.
 IPart=  4 Atom   2 batch    8 overlaps    4 atoms,    51 shells and     4 DB shells.   NGrid=      1180
 Symmetry reduced   590 angular points to   590 for atom    2.
 IPart=  7 Atom   2 batch    9 overlaps    4 atoms,    51 shells and     4 DB shells.   NGrid=      1180
 IPart=  1 Atom   2 batch   10 overlaps    4 atoms,    51 shells and     4 DB shells.   NGrid=      1180
 IPart=  2 Atom   2 batch   11 overlaps    4 atoms,    51 shells and     4 DB shells.   NGrid=      1180
 IPart=  5 Atom   2 batch   12 overlaps    4 atoms,    50 shells and     4 DB shells.   NGrid=       590
 IPart=  4 Atom   2 batch   13 overlaps    4 atoms,    50 shells and     4 DB shells.   NGrid=       604
 Symmetry reduced   302 angular points to   302 for atom    2.
 IPart=  5 Atom   2 batch   14 overlaps    4 atoms,    50 shells and     4 DB shells.   NGrid=       604
 Symmetry reduced   302 angular points to   302 for atom    2.
 IPart=  4 Atom   2 batch   15 overlaps    4 atoms,    47 shells and     4 DB shells.   NGrid=       604
 IPart=  0 Atom   2 batch   16 overlaps    4 atoms,    46 shells and     4 DB shells.   NGrid=       604
 IPart=  6 Atom   2 batch   17 overlaps    4 atoms,    44 shells and     4 DB shells.   NGrid=       604
 Symmetry reduced   302 angular points to   302 for atom    2.
 IPart=  3 Atom   2 batch   18 overlaps    4 atoms,    37 shells and     4 DB shells.   NGrid=       604
 Symmetry reduced   302 angular points to   302 for atom    2.
 IPart=  7 Atom   2 batch   19 overlaps    4 atoms,    29 shells and     4 DB shells.   NGrid=       604
 Symmetry reduced   302 angular points to   302 for atom    2.
 IPart=  1 Atom   2 batch   20 overlaps    4 atoms,    18 shells and     3 DB shells.   NGrid=       604
 Symmetry reduced   302 angular points to   302 for atom    2.
 IPart=  2 Atom   2 batch   21 overlaps    4 atoms,    12 shells and     2 DB shells.   NGrid=       604
 Symmetry reduced   302 angular points to   302 for atom    2.
 IPart=  6 Atom   2 batch   22 overlaps    4 atoms,     5 shells and     0 DB shells.   NGrid=       604
 IPart=  1 Atom   2 batch   23 overlaps    4 atoms,     1 shells and     0 DB shells.   NGrid=       604
 Pruned (  99, 590) grid will be used in numerical quadrature.
 Pruned (  99, 590) grid will be used in numerical quadrature.
 Pruned (  99, 590) grid will be used in numerical quadrature.
 IPart=  0 Atom number   3 atomic number  6 has       23114 grid points.
 IPart=  2 Atom number   3 atomic number  6 has       23114 grid points.
 IPart=  0 Atom   3 batch    2 overlaps    4 atoms,    51 shells and     4 DB shells.   NGrid=      2522
 IPart=  5 Atom number   3 atomic number  6 has       23114 grid points.
 IPart=  2 Atom   3 batch    3 overlaps    4 atoms,    51 shells and     4 DB shells.   NGrid=      2114
 IPart=  5 Atom   3 batch    1 overlaps    4 atoms,    51 shells and     4 DB shells.   NGrid=      2408
 Symmetry reduced   194 angular points to   194 for atom    3.
 Symmetry reduced   302 angular points to   302 for atom    3.
 Symmetry reduced    86 angular points to    86 for atom    3.
 Pruned (  99, 590) grid will be used in numerical quadrature.
 IPart=  4 Atom number   3 atomic number  6 has       23114 grid points.
 IPart=  4 Atom   3 batch    4 overlaps    4 atoms,    51 shells and     4 DB shells.   NGrid=      1180
 Symmetry reduced   590 angular points to   590 for atom    3.
 Pruned (  99, 590) grid will be used in numerical quadrature.
 IPart=  1 Atom number   3 atomic number  6 has       23114 grid points.
 IPart=  1 Atom   3 batch    5 overlaps    4 atoms,    51 shells and     4 DB shells.   NGrid=      1180
 Symmetry reduced   590 angular points to   590 for atom    3.
 Pruned (  99, 590) grid will be used in numerical quadrature.
 IPart=  7 Atom number   3 atomic number  6 has       23114 grid points.
 IPart=  7 Atom   3 batch    6 overlaps    4 atoms,    51 shells and     4 DB shells.   NGrid=      1180
 Symmetry reduced   590 angular points to   590 for atom    3.
 Pruned (  99, 590) grid will be used in numerical quadrature.
 IPart=  3 Atom number   3 atomic number  6 has       23114 grid points.
 IPart=  3 Atom   3 batch    7 overlaps    4 atoms,    51 shells and     4 DB shells.   NGrid=      1180
 Pruned (  99, 590) grid will be used in numerical quadrature.
 Symmetry reduced   590 angular points to   590 for atom    3.
 IPart=  6 Atom number   3 atomic number  6 has       23114 grid points.
 IPart=  6 Atom   3 batch    8 overlaps    4 atoms,    51 shells and     4 DB shells.   NGrid=      1180
 Symmetry reduced   590 angular points to   590 for atom    3.
 IPart=  4 Atom   3 batch    9 overlaps    4 atoms,    51 shells and     4 DB shells.   NGrid=      1180
 IPart=  1 Atom   3 batch   10 overlaps    4 atoms,    51 shells and     4 DB shells.   NGrid=      1180
 IPart=  7 Atom   3 batch   11 overlaps    4 atoms,    50 shells and     4 DB shells.   NGrid=      1180
 IPart=  6 Atom   3 batch   12 overlaps    4 atoms,    50 shells and     4 DB shells.   NGrid=       590
 IPart=  3 Atom   3 batch   13 overlaps    4 atoms,    50 shells and     4 DB shells.   NGrid=       604
 Symmetry reduced   302 angular points to   302 for atom    3.
 IPart=  6 Atom   3 batch   14 overlaps    4 atoms,    48 shells and     4 DB shells.   NGrid=       604
 Symmetry reduced   302 angular points to   302 for atom    3.
 IPart=  3 Atom   3 batch   15 overlaps    4 atoms,    45 shells and     4 DB shells.   NGrid=       604
 IPart=  2 Atom   3 batch   16 overlaps    4 atoms,    34 shells and     4 DB shells.   NGrid=       604
 IPart=  7 Atom   3 batch   17 overlaps    4 atoms,    31 shells and     4 DB shells.   NGrid=       604
 Symmetry reduced   302 angular points to   302 for atom    3.
 IPart=  5 Atom   3 batch   18 overlaps    4 atoms,    21 shells and     4 DB shells.   NGrid=       604
 Symmetry reduced   302 angular points to   302 for atom    3.
 IPart=  1 Atom   3 batch   19 overlaps    4 atoms,    16 shells and     4 DB shells.   NGrid=       604
 Symmetry reduced   302 angular points to   302 for atom    3.
 IPart=  4 Atom   3 batch   20 overlaps    4 atoms,    10 shells and     0 DB shells.   NGrid=       604
 Symmetry reduced   302 angular points to   302 for atom    3.
 IPart=  1 Atom   3 batch   21 overlaps    4 atoms,     5 shells and     0 DB shells.   NGrid=       604
 IPart=  6 Atom   3 batch   22 overlaps    4 atoms,     1 shells and     0 DB shells.   NGrid=       604
 Pruned (  99, 590) grid will be used in numerical quadrature.
 IPart=  0 Atom number   4 atomic number  1 has       23164 grid points.
 IPart=  0 Atom   4 batch    1 overlaps    4 atoms,    49 shells and     4 DB shells.   NGrid=      2838
 Pruned (  99, 590) grid will be used in numerical quadrature.
 Symmetry reduced    86 angular points to    86 for atom    4.
 IPart=  4 Atom number   4 atomic number  1 has       23164 grid points.
 IPart=  4 Atom   4 batch    2 overlaps    4 atoms,    49 shells and     4 DB shells.   NGrid=      1552
 Pruned (  99, 590) grid will be used in numerical quadrature.
 Symmetry reduced   194 angular points to   194 for atom    4.
 IPart=  3 Atom number   4 atomic number  1 has       23164 grid points.
 IPart=  3 Atom   4 batch    3 overlaps    4 atoms,    49 shells and     4 DB shells.   NGrid=      2416
 Symmetry reduced   302 angular points to   302 for atom    4.
 Pruned (  99, 590) grid will be used in numerical quadrature.
 IPart=  5 Atom number   4 atomic number  1 has       23164 grid points.
 IPart=  5 Atom   4 batch    4 overlaps    4 atoms,    49 shells and     4 DB shells.   NGrid=      1180
 Symmetry reduced   590 angular points to   590 for atom    4.
 Pruned (  99, 590) grid will be used in numerical quadrature.
 IPart=  2 Atom number   4 atomic number  1 has       23164 grid points.
 IPart=  2 Atom   4 batch    5 overlaps    4 atoms,    51 shells and     4 DB shells.   NGrid=      1180
 Symmetry reduced   590 angular points to   590 for atom    4.
 Pruned (  99, 590) grid will be used in numerical quadrature.
 IPart=  6 Atom number   4 atomic number  1 has       23164 grid points.
 IPart=  6 Atom   4 batch    6 overlaps    4 atoms,    51 shells and     4 DB shells.   NGrid=      1180
 Symmetry reduced   590 angular points to   590 for atom    4.
 Pruned (  99, 590) grid will be used in numerical quadrature.
 IPart=  1 Atom number   4 atomic number  1 has       23164 grid points.
 IPart=  1 Atom   4 batch    7 overlaps    4 atoms,    51 shells and     4 DB shells.   NGrid=      1180
 Symmetry reduced   590 angular points to   590 for atom    4.
 Pruned (  99, 590) grid will be used in numerical quadrature.
 IPart=  7 Atom number   4 atomic number  1 has       23164 grid points.
 IPart=  7 Atom   4 batch    8 overlaps    4 atoms,    51 shells and     4 DB shells.   NGrid=      1180
 Symmetry reduced   590 angular points to   590 for atom    4.
 IPart=  5 Atom   4 batch    9 overlaps    4 atoms,    51 shells and     4 DB shells.   NGrid=      1180
 IPart=  2 Atom   4 batch   10 overlaps    4 atoms,    51 shells and     4 DB shells.   NGrid=      1180
 IPart=  6 Atom   4 batch   11 overlaps    4 atoms,    51 shells and     4 DB shells.   NGrid=      1180
 IPart=  1 Atom   4 batch   12 overlaps    4 atoms,    51 shells and     4 DB shells.   NGrid=      1180
 IPart=  7 Atom   4 batch   13 overlaps    4 atoms,    51 shells and     4 DB shells.   NGrid=       604
 Symmetry reduced   302 angular points to   302 for atom    4.
 IPart=  4 Atom   4 batch   14 overlaps    4 atoms,    51 shells and     4 DB shells.   NGrid=       604
 Symmetry reduced   302 angular points to   302 for atom    4.
 IPart=  4 Atom   4 batch   15 overlaps    4 atoms,    45 shells and     4 DB shells.   NGrid=       604
 IPart=  7 Atom   4 batch   16 overlaps    4 atoms,    45 shells and     4 DB shells.   NGrid=       604
 IPart=  3 Atom   4 batch   17 overlaps    4 atoms,    33 shells and     4 DB shells.   NGrid=       604
 IPart=  0 Atom   4 batch   18 overlaps    4 atoms,    23 shells and     4 DB shells.   NGrid=       604
 Symmetry reduced   302 angular points to   302 for atom    4.
 IPart=  5 Atom   4 batch   19 overlaps    4 atoms,    18 shells and     4 DB shells.   NGrid=       604
 Symmetry reduced   302 angular points to   302 for atom    4.
 IPart=  6 Atom   4 batch   20 overlaps    4 atoms,     8 shells and     0 DB shells.   NGrid=       604
 Symmetry reduced   302 angular points to   302 for atom    4.
 IPart=  1 Atom   4 batch   21 overlaps    4 atoms,     5 shells and     0 DB shells.   NGrid=       604
 IPart=  5 Atom   4 batch   22 overlaps    4 atoms,     0 shells and     0 DB shells.   NGrid=       302
 Symmetry reduced   302 angular points to   302 for atom    4.
 There are a total of       93412 grid points.
 ElSum from          density=       24.0000000475
 ElSum from atomic densities=       22.9999997553

 Hirshfeld populations at iteration   1 (CX, CA, CB, DipXYZ):
               1          2          3          4          5          6
     1  O    0.000016   4.265867   4.265867  -0.000000   0.252672   0.104611
     2  O    0.000016   4.265867   4.265867   0.000000  -0.252672   0.104611
     3  C    0.000000   2.941446   2.941446   0.000000  -0.000000   0.048549
     4  H    0.000010   0.526819   0.526819   0.000000  -0.000000   0.070108
       Tot   0.000041  12.000000  12.000000   0.000000  -0.000000   0.327879

 Dip from Atomic Chgs             -0.000000  -0.000000   0.335379
         Total Dipole              0.000000  -0.000000   0.663259

 Hirshfeld charges, spin densities, dipoles, and CM5 charges using IRadAn=      5:
              Q-H        S-H        Dx         Dy         Dz        Q-CM5   
     1  O   -0.531735   0.000000  -0.000000   0.252672   0.104611  -0.577058
     2  O   -0.531735   0.000000   0.000000  -0.252672   0.104611  -0.577058
     3  C    0.117108   0.000000   0.000000  -0.000000   0.048549   0.142913
     4  H   -0.053639   0.000000   0.000000  -0.000000   0.070108   0.011203
       Tot  -1.000000   0.000000   0.000000  -0.000000   0.327879  -1.000000
 Hirshfeld charges with hydrogens summed into heavy atoms:
              Q-H       Q-CM5   
     1  O   -0.531735  -0.577058
     2  O   -0.531735  -0.577058
     3  C    0.063469   0.154115
 
 EQQ=  0.00000000000     EQD=  0.00000000000     EDD= 0.698065936473E-03
 EQQ+QD+DD= 0.698065936473E-03
 
  Exact polarizability:      20.201       0.000      32.512      -0.000       0.000      29.216
 Approx polarizability:      18.518       0.000      26.933      -0.000       0.000      23.539
 Entering OneElI...
 OneElI was handed  1572797418 working-precision words.
 Calculate electrostatic properties
    NBasis =   161  MinDer = 0  MaxDer = 0
    NGrid  =     4  NMatD  =   1
 Requested accuracy = 0.1000D-12
 ShPair: Thresh= 1.00D-13 NBox=     0 BxSize= 0.00D+00 RnKept= 4.30D+00
         NSMCal=                 1326 NSMKep=                1319
 PrmmSu-InSpLW:  IPartL=    0 NPrtUS=    8 NPrtUL=    1 DoSpLW=F IThBeg=    0 IThEnd=    7 NThAct=    8.
 PrSmSu:  IncTry=   512 NBBP=           5276 NTPThr=   100 NPartT=    8 Incr=           6 LDynOK=F GPUOK=F.
 PrsmSu:  NPrtUS=   8 ThrOK=T IAlg=2 LenDen=           0 ISkipM=0 DoSpLW=F IThBeg=    0 IThEnd=    7.
 Prism:   IPart=     0 DynPar=F LinDyn=F Incr=           6.
 PRISM was handed   196558746 working-precision words and  1319 shell-pairs
 PRISM was handed   196558746 working-precision words and  1319 shell-pairs
 PRISM was handed   196558746 working-precision words and  1319 shell-pairs
 PRISM was handed   196558746 working-precision words and  1319 shell-pairs
 PRISM was handed   196558746 working-precision words and  1319 shell-pairs
 PRISM was handed   196558746 working-precision words and  1319 shell-pairs
 PRISM was handed   196558746 working-precision words and  1319 shell-pairs
 PRISM was handed   196558746 working-precision words and  1319 shell-pairs
 IPart=  6 NShTot=         604 NBatch=         151 AvBLen=         4.0
 PrsmSu-ThDecC:  IPartSL=    6    0 NPrtUSL=    8    1 IThBeg=    0 IThEnd=    7 CPU=   -1 GPU=   -1 NThAct=    8.
 IPart=  5 NShTot=         624 NBatch=         156 AvBLen=         4.0
 PrsmSu-ThDecC:  IPartSL=    5    0 NPrtUSL=    8    1 IThBeg=    0 IThEnd=    7 CPU=   -1 GPU=   -1 NThAct=    7.
 IPart=  4 NShTot=         632 NBatch=         158 AvBLen=         4.0
 PrsmSu-ThDecC:  IPartSL=    4    0 NPrtUSL=    8    1 IThBeg=    0 IThEnd=    7 CPU=   -1 GPU=   -1 NThAct=    6.
 IPart=  3 NShTot=         644 NBatch=         161 AvBLen=         4.0
 PrsmSu-ThDecC:  IPartSL=    3    0 NPrtUSL=    8    1 IThBeg=    0 IThEnd=    7 CPU=   -1 GPU=   -1 NThAct=    5.
 IPart=  7 NShTot=         592 NBatch=         148 AvBLen=         4.0
 PrsmSu-ThDecC:  IPartSL=    7    0 NPrtUSL=    8    1 IThBeg=    0 IThEnd=    7 CPU=   -1 GPU=   -1 NThAct=    4.
 IPart=  2 NShTot=         672 NBatch=         168 AvBLen=         4.0
 PrsmSu-ThDecC:  IPartSL=    2    0 NPrtUSL=    8    1 IThBeg=    0 IThEnd=    7 CPU=   -1 GPU=   -1 NThAct=    3.
 IPart=  0 NShTot=         764 NBatch=         191 AvBLen=         4.0
 PrsmSu-ThDecC:  IPartSL=    0    0 NPrtUSL=    8    1 IThBeg=    0 IThEnd=    7 CPU=   -1 GPU=   -1 NThAct=    2.
 IPart=  1 NShTot=         744 NBatch=         186 AvBLen=         4.0
 PrsmSu-ThDecC:  IPartSL=    1    0 NPrtUSL=    8    1 IThBeg=    0 IThEnd=    7 CPU=   -1 GPU=   -1 NThAct=    1.
 PrSmSu:  NxtVal=             49.
 --------------------------------------------------------
       Center         ----      EFG at Nuclei      ----
                      3XX-RR        3YY-RR        3ZZ-RR
 --------------------------------------------------------
     1   Atom       -0.452336     -0.603277      1.055613
     2   Atom       -0.452336     -0.603277      1.055613
     3   Atom       -0.602680      0.413206      0.189474
     4   Atom        0.110769      0.108349     -0.219117
 --------------------------------------------------------
                        XY            XZ            YZ
 --------------------------------------------------------
     1   Atom       -0.000000      0.000000     -0.885217
     2   Atom        0.000000      0.000000      0.885217
     3   Atom        0.000000      0.000000     -0.000000
     4   Atom       -0.000000      0.000000      0.000000
 --------------------------------------------------------


 ---------------------------------------------------------------------------------
              Nuclear Quadrupole Coupling Constant in Principal Axis System
 ---------------------------------------------------------------------------------

       Atom             a.u.   MegaHertz   Gauss  10(-4) cm-1        Axes


 ---------------------------------------------------------------------------------

 No NMR shielding tensors so no spin-rotation constants.
 Leave Link  601 at Wed Jun 19 08:44:15 2024, MaxMem=  1572864000 cpu:               1.5 elap:               0.2
 (Enter /software/sse/easybuild/prefix/software/Gaussian/16.C.01-avx2-nsc1/g16/l602.exe)
 FitSet:  NAtFit=     4 NAtPot=     4 NAtFrz=     0 MDM=     8 TotChg=  -1.00000
 Merz-Kollman atomic radii used.
 Read replacement radii for each type of atom:
 Atom Element Radius
    1     8    1.40
    2     8    1.40
    3     6    1.50
    4     1    1.20
 Generate VDW surfaces: Layer= 4 Dens= 6 Start= 1.400 Inc= 0.200

 **********************************************************************

            Electrostatic Properties Using The SCF Density.

 **********************************************************************

       Atomic Center    1 is at  -0.000000 -1.137586 -0.206812
       Atomic Center    2 is at   0.000000  1.137586 -0.206812
       Atomic Center    3 is at   0.000000 -0.000000  0.307620
       Atomic Center    4 is at   0.000000 -0.000000  1.463278
      ESP Fit Center    5 is at  -0.690399 -1.536188  1.583737
      ESP Fit Center    6 is at  -0.398602 -1.827985  1.583737
      ESP Fit Center    7 is at  -0.000000 -1.934790  1.583737
      ESP Fit Center    8 is at   0.398602 -1.827985  1.583737
      ESP Fit Center    9 is at   0.690399 -1.536188  1.583737
      ESP Fit Center   10 is at  -0.979500 -1.744067  1.378861
      ESP Fit Center   11 is at  -0.694271 -2.056949  1.378861
      ESP Fit Center   12 is at  -0.315276 -2.245666  1.378861
      ESP Fit Center   13 is at   0.106299 -2.284731  1.378861
      ESP Fit Center   14 is at   0.513517 -2.168867  1.378861
      ESP Fit Center   15 is at   0.851382 -1.913724  1.378861
      ESP Fit Center   16 is at   1.074263 -1.553758  1.378861
      ESP Fit Center   17 is at  -1.397563 -1.547948  1.104684
      ESP Fit Center   18 is at  -1.225339 -1.925064  1.104684
      ESP Fit Center   19 is at  -0.953846 -2.238384  1.104684
      ESP Fit Center   20 is at  -0.605078 -2.462523  1.104684
      ESP Fit Center   21 is at  -0.207291 -2.579324  1.104684
      ESP Fit Center   22 is at   0.207291 -2.579324  1.104684
      ESP Fit Center   23 is at   0.605078 -2.462523  1.104684
      ESP Fit Center   24 is at   0.953846 -2.238384  1.104684
      ESP Fit Center   25 is at   1.225339 -1.925064  1.104684
      ESP Fit Center   26 is at   1.397563 -1.547948  1.104684
      ESP Fit Center   27 is at  -1.684025 -1.350328  0.773188
      ESP Fit Center   28 is at  -1.578212 -1.762445  0.773188
      ESP Fit Center   29 is at  -1.373233 -2.135299  0.773188
      ESP Fit Center   30 is at  -1.081970 -2.445463  0.773188
      ESP Fit Center   31 is at  -0.722722 -2.673449  0.773188
      ESP Fit Center   32 is at  -0.318063 -2.804930  0.773188
      ESP Fit Center   33 is at   0.106581 -2.831647  0.773188
      ESP Fit Center   34 is at   0.524528 -2.751919  0.773188
      ESP Fit Center   35 is at   0.909518 -2.570757  0.773188
      ESP Fit Center   36 is at   1.237358 -2.299543  0.773188
      ESP Fit Center   37 is at   1.487452 -1.955320  0.773188
      ESP Fit Center   38 is at   1.644083 -1.559715  0.773188
      ESP Fit Center   39 is at   1.864071 -1.137586  0.398861
      ESP Fit Center   40 is at  -1.864071 -1.137586  0.398861
      ESP Fit Center   41 is at  -1.817335 -1.552381  0.398861
      ESP Fit Center   42 is at  -1.679470 -1.946376  0.398861
      ESP Fit Center   43 is at  -1.457389 -2.299815  0.398861
      ESP Fit Center   44 is at  -1.162229 -2.594976  0.398861
      ESP Fit Center   45 is at  -0.808790 -2.817056  0.398861
      ESP Fit Center   46 is at  -0.414795 -2.954921  0.398861
      ESP Fit Center   47 is at  -0.000000 -3.001657  0.398861
      ESP Fit Center   48 is at   0.414795 -2.954921  0.398861
      ESP Fit Center   49 is at   0.808790 -2.817056  0.398861
      ESP Fit Center   50 is at   1.162229 -2.594976  0.398861
      ESP Fit Center   51 is at   1.457389 -2.299815  0.398861
      ESP Fit Center   52 is at   1.679470 -1.946376  0.398861
      ESP Fit Center   53 is at   1.817335 -1.552381  0.398861
      ESP Fit Center   54 is at   1.949263 -1.137586 -0.001937
      ESP Fit Center   55 is at  -1.937836 -0.926834 -0.001937
      ESP Fit Center   56 is at  -1.937836 -1.348339 -0.001937
      ESP Fit Center   57 is at  -1.847225 -1.759989 -0.001937
      ESP Fit Center   58 is at  -1.670240 -2.142536 -0.001937
      ESP Fit Center   59 is at  -1.415156 -2.478093 -0.001937
      ESP Fit Center   60 is at  -1.093901 -2.750970 -0.001937
      ESP Fit Center   61 is at  -0.721497 -2.948406 -0.001937
      ESP Fit Center   62 is at  -0.315356 -3.061171 -0.001937
      ESP Fit Center   63 is at   0.105531 -3.083991 -0.001937
      ESP Fit Center   64 is at   0.521483 -3.015799 -0.001937
      ESP Fit Center   65 is at   0.913051 -2.859784 -0.001937
      ESP Fit Center   66 is at   1.261926 -2.623241 -0.001937
      ESP Fit Center   67 is at   1.551795 -2.317230 -0.001937
      ESP Fit Center   68 is at   1.769103 -1.956061 -0.001937
      ESP Fit Center   69 is at   1.903690 -1.556620 -0.001937
      ESP Fit Center   70 is at   1.949263 -1.137586 -0.411688
      ESP Fit Center   71 is at   1.903690 -0.718552 -0.411688
      ESP Fit Center   72 is at  -1.937836 -0.926834 -0.411688
      ESP Fit Center   73 is at  -1.937836 -1.348339 -0.411688
      ESP Fit Center   74 is at  -1.847225 -1.759989 -0.411688
      ESP Fit Center   75 is at  -1.670240 -2.142536 -0.411688
      ESP Fit Center   76 is at  -1.415156 -2.478093 -0.411688
      ESP Fit Center   77 is at  -1.093901 -2.750970 -0.411688
      ESP Fit Center   78 is at  -0.721497 -2.948406 -0.411688
      ESP Fit Center   79 is at  -0.315356 -3.061171 -0.411688
      ESP Fit Center   80 is at   0.105531 -3.083991 -0.411688
      ESP Fit Center   81 is at   0.521483 -3.015799 -0.411688
      ESP Fit Center   82 is at   0.913051 -2.859784 -0.411688
      ESP Fit Center   83 is at   1.261926 -2.623241 -0.411688
      ESP Fit Center   84 is at   1.551795 -2.317230 -0.411688
      ESP Fit Center   85 is at   1.769103 -1.956061 -0.411688
      ESP Fit Center   86 is at   1.903690 -1.556620 -0.411688
      ESP Fit Center   87 is at   1.864071 -1.137586 -0.812486
      ESP Fit Center   88 is at   1.817335 -0.722792 -0.812486
      ESP Fit Center   89 is at  -1.817335 -0.722792 -0.812486
      ESP Fit Center   90 is at  -1.864071 -1.137586 -0.812486
      ESP Fit Center   91 is at  -1.817335 -1.552381 -0.812486
      ESP Fit Center   92 is at  -1.679470 -1.946376 -0.812486
      ESP Fit Center   93 is at  -1.457389 -2.299815 -0.812486
      ESP Fit Center   94 is at  -1.162229 -2.594976 -0.812486
      ESP Fit Center   95 is at  -0.808790 -2.817056 -0.812486
      ESP Fit Center   96 is at  -0.414795 -2.954921 -0.812486
      ESP Fit Center   97 is at  -0.000000 -3.001657 -0.812486
      ESP Fit Center   98 is at   0.414795 -2.954921 -0.812486
      ESP Fit Center   99 is at   0.808790 -2.817056 -0.812486
      ESP Fit Center  100 is at   1.162229 -2.594976 -0.812486
      ESP Fit Center  101 is at   1.457389 -2.299815 -0.812486
      ESP Fit Center  102 is at   1.679470 -1.946376 -0.812486
      ESP Fit Center  103 is at   1.817335 -1.552381 -0.812486
      ESP Fit Center  104 is at   1.697410 -1.137586 -1.186812
      ESP Fit Center  105 is at   1.644083 -0.715458 -1.186812
      ESP Fit Center  106 is at   1.487452 -0.319853 -1.186812
      ESP Fit Center  107 is at  -1.578212 -0.512728 -1.186812
      ESP Fit Center  108 is at  -1.684025 -0.924844 -1.186812
      ESP Fit Center  109 is at  -1.684025 -1.350328 -1.186812
      ESP Fit Center  110 is at  -1.578212 -1.762445 -1.186812
      ESP Fit Center  111 is at  -1.373233 -2.135299 -1.186812
      ESP Fit Center  112 is at  -1.081970 -2.445463 -1.186812
      ESP Fit Center  113 is at  -0.722722 -2.673449 -1.186812
      ESP Fit Center  114 is at  -0.318063 -2.804930 -1.186812
      ESP Fit Center  115 is at   0.106581 -2.831647 -1.186812
      ESP Fit Center  116 is at   0.524528 -2.751919 -1.186812
      ESP Fit Center  117 is at   0.909518 -2.570757 -1.186812
      ESP Fit Center  118 is at   1.237358 -2.299543 -1.186812
      ESP Fit Center  119 is at   1.487452 -1.955320 -1.186812
      ESP Fit Center  120 is at   1.644083 -1.559715 -1.186812
      ESP Fit Center  121 is at   1.456564 -1.137586 -1.518308
      ESP Fit Center  122 is at   1.397563 -0.727225 -1.518308
      ESP Fit Center  123 is at   1.225339 -0.350108 -1.518308
      ESP Fit Center  124 is at  -1.225339 -0.350108 -1.518308
      ESP Fit Center  125 is at  -1.397563 -0.727225 -1.518308
      ESP Fit Center  126 is at  -1.456564 -1.137586 -1.518308
      ESP Fit Center  127 is at  -1.397563 -1.547948 -1.518308
      ESP Fit Center  128 is at  -1.225339 -1.925064 -1.518308
      ESP Fit Center  129 is at  -0.953846 -2.238384 -1.518308
      ESP Fit Center  130 is at  -0.605078 -2.462523 -1.518308
      ESP Fit Center  131 is at  -0.207291 -2.579324 -1.518308
      ESP Fit Center  132 is at   0.207291 -2.579324 -1.518308
      ESP Fit Center  133 is at   0.605078 -2.462523 -1.518308
      ESP Fit Center  134 is at   0.953846 -2.238384 -1.518308
      ESP Fit Center  135 is at   1.225339 -1.925064 -1.518308
      ESP Fit Center  136 is at   1.397563 -1.547948 -1.518308
      ESP Fit Center  137 is at   1.152059 -1.137586 -1.792486
      ESP Fit Center  138 is at   1.074263 -0.721415 -1.792486
      ESP Fit Center  139 is at   0.851382 -0.361449 -1.792486
      ESP Fit Center  140 is at   0.513517 -0.106305 -1.792486
      ESP Fit Center  141 is at  -0.315276 -0.029506 -1.792486
      ESP Fit Center  142 is at  -0.694271 -0.218223 -1.792486
      ESP Fit Center  143 is at  -0.979500 -0.531105 -1.792486
      ESP Fit Center  144 is at  -1.132443 -0.925896 -1.792486
      ESP Fit Center  145 is at  -1.132443 -1.349277 -1.792486
      ESP Fit Center  146 is at  -0.979500 -1.744067 -1.792486
      ESP Fit Center  147 is at  -0.694271 -2.056949 -1.792486
      ESP Fit Center  148 is at  -0.315276 -2.245666 -1.792486
      ESP Fit Center  149 is at   0.106299 -2.284731 -1.792486
      ESP Fit Center  150 is at   0.513517 -2.168867 -1.792486
      ESP Fit Center  151 is at   0.851382 -1.913724 -1.792486
      ESP Fit Center  152 is at   1.074263 -1.553758 -1.792486
      ESP Fit Center  153 is at   0.797204 -1.137586 -1.997362
      ESP Fit Center  154 is at   0.690399 -0.738984 -1.997362
      ESP Fit Center  155 is at   0.398602 -0.447188 -1.997362
      ESP Fit Center  156 is at   0.000000 -0.340383 -1.997362
      ESP Fit Center  157 is at  -0.398602 -0.447188 -1.997362
      ESP Fit Center  158 is at  -0.690399 -0.738984 -1.997362
      ESP Fit Center  159 is at  -0.797204 -1.137586 -1.997362
      ESP Fit Center  160 is at  -0.690399 -1.536188 -1.997362
      ESP Fit Center  161 is at  -0.398602 -1.827985 -1.997362
      ESP Fit Center  162 is at  -0.000000 -1.934790 -1.997362
      ESP Fit Center  163 is at   0.398602 -1.827985 -1.997362
      ESP Fit Center  164 is at   0.690399 -1.536188 -1.997362
      ESP Fit Center  165 is at   0.407507 -1.137586 -2.123982
      ESP Fit Center  166 is at   0.203753 -0.784675 -2.123982
      ESP Fit Center  167 is at  -0.203753 -0.784675 -2.123982
      ESP Fit Center  168 is at  -0.407507 -1.137586 -2.123982
      ESP Fit Center  169 is at  -0.203753 -1.490498 -2.123982
      ESP Fit Center  170 is at   0.203753 -1.490498 -2.123982
      ESP Fit Center  171 is at   0.000000 -1.137586 -2.166812
      ESP Fit Center  172 is at   0.690399  1.536188  1.583737
      ESP Fit Center  173 is at   0.398602  1.827985  1.583737
      ESP Fit Center  174 is at   0.000000  1.934790  1.583737
      ESP Fit Center  175 is at  -0.398602  1.827985  1.583737
      ESP Fit Center  176 is at  -0.690399  1.536188  1.583737
      ESP Fit Center  177 is at   1.074263  1.553758  1.378861
      ESP Fit Center  178 is at   0.851382  1.913724  1.378861
      ESP Fit Center  179 is at   0.513517  2.168867  1.378861
      ESP Fit Center  180 is at   0.106299  2.284731  1.378861
      ESP Fit Center  181 is at  -0.315276  2.245666  1.378861
      ESP Fit Center  182 is at  -0.694271  2.056949  1.378861
      ESP Fit Center  183 is at  -0.979500  1.744067  1.378861
      ESP Fit Center  184 is at   1.397563  1.547948  1.104684
      ESP Fit Center  185 is at   1.225339  1.925064  1.104684
      ESP Fit Center  186 is at   0.953846  2.238384  1.104684
      ESP Fit Center  187 is at   0.605078  2.462523  1.104684
      ESP Fit Center  188 is at   0.207291  2.579324  1.104684
      ESP Fit Center  189 is at  -0.207291  2.579324  1.104684
      ESP Fit Center  190 is at  -0.605078  2.462523  1.104684
      ESP Fit Center  191 is at  -0.953846  2.238384  1.104684
      ESP Fit Center  192 is at  -1.225339  1.925064  1.104684
      ESP Fit Center  193 is at  -1.397563  1.547948  1.104684
      ESP Fit Center  194 is at   1.644083  1.559715  0.773188
      ESP Fit Center  195 is at   1.487452  1.955320  0.773188
      ESP Fit Center  196 is at   1.237358  2.299543  0.773188
      ESP Fit Center  197 is at   0.909518  2.570757  0.773188
      ESP Fit Center  198 is at   0.524528  2.751919  0.773188
      ESP Fit Center  199 is at   0.106581  2.831647  0.773188
      ESP Fit Center  200 is at  -0.318063  2.804930  0.773188
      ESP Fit Center  201 is at  -0.722722  2.673449  0.773188
      ESP Fit Center  202 is at  -1.081970  2.445463  0.773188
      ESP Fit Center  203 is at  -1.373233  2.135299  0.773188
      ESP Fit Center  204 is at  -1.578212  1.762445  0.773188
      ESP Fit Center  205 is at  -1.684025  1.350328  0.773188
      ESP Fit Center  206 is at   1.864071  1.137586  0.398861
      ESP Fit Center  207 is at   1.817335  1.552381  0.398861
      ESP Fit Center  208 is at   1.679470  1.946376  0.398861
      ESP Fit Center  209 is at   1.457389  2.299815  0.398861
      ESP Fit Center  210 is at   1.162229  2.594976  0.398861
      ESP Fit Center  211 is at   0.808790  2.817056  0.398861
      ESP Fit Center  212 is at   0.414795  2.954921  0.398861
      ESP Fit Center  213 is at   0.000000  3.001657  0.398861
      ESP Fit Center  214 is at  -0.414795  2.954921  0.398861
      ESP Fit Center  215 is at  -0.808790  2.817056  0.398861
      ESP Fit Center  216 is at  -1.162229  2.594976  0.398861
      ESP Fit Center  217 is at  -1.457389  2.299815  0.398861
      ESP Fit Center  218 is at  -1.679470  1.946376  0.398861
      ESP Fit Center  219 is at  -1.817335  1.552381  0.398861
      ESP Fit Center  220 is at  -1.864071  1.137586  0.398861
      ESP Fit Center  221 is at   1.949263  1.137586 -0.001937
      ESP Fit Center  222 is at   1.903690  1.556620 -0.001937
      ESP Fit Center  223 is at   1.769103  1.956061 -0.001937
      ESP Fit Center  224 is at   1.551795  2.317230 -0.001937
      ESP Fit Center  225 is at   1.261926  2.623241 -0.001937
      ESP Fit Center  226 is at   0.913051  2.859784 -0.001937
      ESP Fit Center  227 is at   0.521483  3.015799 -0.001937
      ESP Fit Center  228 is at   0.105531  3.083991 -0.001937
      ESP Fit Center  229 is at  -0.315356  3.061171 -0.001937
      ESP Fit Center  230 is at  -0.721497  2.948406 -0.001937
      ESP Fit Center  231 is at  -1.093901  2.750970 -0.001937
      ESP Fit Center  232 is at  -1.415156  2.478093 -0.001937
      ESP Fit Center  233 is at  -1.670240  2.142536 -0.001937
      ESP Fit Center  234 is at  -1.847225  1.759989 -0.001937
      ESP Fit Center  235 is at  -1.937836  1.348339 -0.001937
      ESP Fit Center  236 is at  -1.937836  0.926834 -0.001937
      ESP Fit Center  237 is at   1.949263  1.137586 -0.411688
      ESP Fit Center  238 is at   1.903690  1.556620 -0.411688
      ESP Fit Center  239 is at   1.769103  1.956061 -0.411688
      ESP Fit Center  240 is at   1.551795  2.317230 -0.411688
      ESP Fit Center  241 is at   1.261926  2.623241 -0.411688
      ESP Fit Center  242 is at   0.913051  2.859784 -0.411688
[...]
     X                                            X                                                                                  
                                                  X                                                                                  
                                                  X                                                                                  
                                                  X                                                                                  
                                                  X                                                                                  
                                                  X                                                                                  
                                                  X                                                                                  
                                                  X                                                                                  
                                                  X                                                                                  
                                                  X                                                                                  
                                                  X                                                                                  
                                                  X                                                                                  
 
 
                                                               formate
                                                            Raman Spectrum
 
     2                                            1             11            1                                                      
     7                                            8             54            1                8                                     
     9                                            0             08            9                2                                     
     2                                            7             72            6                4                                     
 
     X                                            X             XX            X                X                                     
     X                                                                                                                               
     X                                                                                                                               
     X                                                                                                                               
     X                                                                                                                               
     X                                                                                                                               
     X                                                                                                                               
     X                                                                                                                               
     X                                                                                                                               
     X                                                                                                                               
     X                                                                                                                               
     X                                                                                                                               
     X                                                                                                                               
     X                                                                                                                               
     X                                                                                                                               
     X                                                                                                                               
     X                                                                                                                               
     X                                                                                                                               
     X                                                                                                                               
     X                                                                                                                               
 
 ***** Axes restored to original set *****
 -------------------------------------------------------------------
 Center     Atomic                   Forces (Hartrees/Bohr)
 Number     Number              X              Y              Z
 -------------------------------------------------------------------
      1        8          -0.000000007   -0.000000009    0.000000000
      2        8           0.000000007   -0.000000009   -0.000000000
      3        6           0.000000000   -0.000000005    0.000000000
      4        1          -0.000000000    0.000000024   -0.000000000
 -------------------------------------------------------------------
 Cartesian Forces:  Max     0.000000024 RMS     0.000000009
 Force constants in Cartesian coordinates: 
                1             2             3             4             5 
      1  0.644715D+00
      2  0.245777D+00  0.220651D+00
      3  0.000000D+00  0.000000D+00  0.322487D-01
      4 -0.139235D+00  0.115037D-02  0.000000D+00  0.644765D+00
      5 -0.117040D-02  0.591187D-01  0.000000D+00 -0.245734D+00  0.220601D+00
      6  0.000000D+00  0.000000D+00  0.322487D-01  0.000000D+00  0.000000D+00
      7 -0.492320D+00 -0.199756D+00  0.000000D+00 -0.492362D+00  0.199731D+00
      8 -0.212393D+00 -0.242280D+00  0.000000D+00  0.212368D+00 -0.242238D+00
      9  0.000000D+00  0.000000D+00 -0.941996D-01  0.000000D+00  0.000000D+00
     10 -0.131598D-01 -0.471706D-01  0.000000D+00 -0.131678D-01  0.471730D-01
     11 -0.322131D-01 -0.374898D-01  0.000000D+00  0.322155D-01 -0.374818D-01
     12  0.000000D+00  0.000000D+00  0.297022D-01  0.000000D+00  0.000000D+00
                6             7             8             9            10 
      6  0.322487D-01
      7  0.000000D+00  0.104021D+01
      8  0.000000D+00  0.175650D-04  0.691386D+00
      9 -0.941996D-01  0.000000D+00  0.000000D+00  0.275160D+00
     10  0.000000D+00 -0.555256D-01  0.763809D-05  0.000000D+00  0.818531D-01
     11  0.000000D+00  0.765255D-05 -0.206868D+00  0.000000D+00 -0.100983D-04
     12  0.297022D-01  0.000000D+00  0.000000D+00 -0.867611D-01  0.000000D+00
               11            12 
     11  0.281839D+00
     12  0.000000D+00  0.273567D-01
 FormGI is forming the generalized inverse of G from B-inverse, IUseBI=4.
 Force constants in internal coordinates: 
                1             2             3             4             5 
      1  0.757272D+00
      2  0.124243D+00  0.757272D+00
      3  0.449711D-01  0.449711D-01  0.281839D+00
      4  0.260181D-01  0.260181D-01 -0.317496D-01  0.218369D+00
      5  0.205783D-01 -0.465964D-01  0.158748D-01 -0.109184D+00  0.146230D+00
      6 -0.465964D-01  0.205783D-01  0.158748D-01 -0.109184D+00 -0.370455D-01
      7  0.000000D+00  0.000000D+00  0.000000D+00  0.000000D+00  0.000000D+00
                6             7 
      6  0.146230D+00
      7  0.000000D+00  0.143296D+00
 Leave Link  716 at Wed Jun 19 08:45:08 2024, MaxMem=  1572864000 cpu:               0.2 elap:               0.0
 (Enter /software/sse/easybuild/prefix/software/Gaussian/16.C.01-avx2-nsc1/g16/l103.exe)

 GradGradGradGradGradGradGradGradGradGradGradGradGradGradGradGradGradGrad
 Berny optimization.
 Red2BG is reusing G-inverse.
 Internal  Forces:  Max     0.000000024 RMS     0.000000011
 Search for a local minimum.
 Step number   1 out of a maximum of    2
 All quantities printed in internal units (Hartrees-Bohrs-Radians)
 Second derivative matrix not updated -- analytic derivatives used.
 The second derivative matrix:
                          R1        R2        R3        A1        A2
           R1           0.75727
           R2           0.12424   0.75727
           R3           0.04497   0.04497   0.28184
           A1           0.02602   0.02602  -0.03175   0.21837
           A2           0.02058  -0.04660   0.01587  -0.10918   0.14623
           A3          -0.04660   0.02058   0.01587  -0.10918  -0.03705
           D1          -0.00000  -0.00000   0.00000  -0.00000   0.00000
                          A3        D1
           A3           0.14623
           D1           0.00000   0.14330
 ITU=  0
     Eigenvalues ---    0.14330   0.17346   0.25005   0.34971   0.64285
     Eigenvalues ---    0.89115
 Angle between quadratic step and forces=  90.00 degrees.
 Linear search not attempted -- first point.
 Iteration  1 RMS(Cart)=  0.00000003 RMS(Int)=  0.00000000
 ITry= 1 IFail=0 DXMaxC= 7.18D-08 DCOld= 1.00D+10 DXMaxT= 3.00D-01 DXLimC= 3.00D+00 Rises=F
 ClnCor:  largest displacement from symmetrization is 2.87D-14 for atom     2.
 Variable       Old X    -DE/DX   Delta X   Delta X   Delta X     New X
                                 (Linear)    (Quad)   (Total)
    R1        2.32232   0.00000   0.00000   0.00000   0.00000   2.32232
    R2        2.32232   0.00000   0.00000   0.00000   0.00000   2.32232
    R3        2.11616   0.00000   0.00000   0.00000   0.00000   2.11616
    A1        2.27550  -0.00000   0.00000  -0.00000  -0.00000   2.27550
    A2        2.00384   0.00000   0.00000   0.00000   0.00000   2.00384
    A3        2.00384   0.00000   0.00000   0.00000   0.00000   2.00384
    D1        3.14159   0.00000   0.00000   0.00000   0.00000   3.14159
         Item               Value     Threshold  Converged?
 Maximum Force            0.000000     0.000002     YES
 RMS     Force            0.000000     0.000001     YES
 Maximum Displacement     0.000000     0.000006     YES
 RMS     Displacement     0.000000     0.000004     YES
 Predicted change in Energy=-1.180047D-15
 Optimization completed.
    -- Stationary point found.
                           ----------------------------
                           !   Optimized Parameters   !
                           ! (Angstroms and Degrees)  !
 --------------------------                            --------------------------
 ! Name  Definition              Value          Derivative Info.                !
 --------------------------------------------------------------------------------
 ! R1    R(1,3)                  1.2289         -DE/DX =    0.0                 !
 ! R2    R(2,3)                  1.2289         -DE/DX =    0.0                 !
 ! R3    R(3,4)                  1.1198         -DE/DX =    0.0                 !
 ! A1    A(1,3,2)              130.3767         -DE/DX =    0.0                 !
 ! A2    A(1,3,4)              114.8116         -DE/DX =    0.0                 !
 ! A3    A(2,3,4)              114.8116         -DE/DX =    0.0                 !
 ! D1    D(1,3,4,2)            180.0            -DE/DX =    0.0                 !
 --------------------------------------------------------------------------------
 GradGradGradGradGradGradGradGradGradGradGradGradGradGradGradGradGradGrad

 Leave Link  103 at Wed Jun 19 08:45:09 2024, MaxMem=  1572864000 cpu:               0.1 elap:               0.0
 (Enter /software/sse/easybuild/prefix/software/Gaussian/16.C.01-avx2-nsc1/g16/l9999.exe)

 ----------------------------------------------------------------------

 Electric dipole moment (input orientation):
 (Debye = 10**-18 statcoulomb cm , SI units = C m)
                  (au)            (Debye)         (10**-30 SI)
   Tot        0.680955D+00      0.173082D+01      0.577338D+01
   x         -0.343783D-04     -0.873810D-04     -0.291472D-03
   y          0.680955D+00      0.173082D+01      0.577338D+01
   z          0.000000D+00      0.000000D+00      0.000000D+00

 Dipole polarizability, Alpha (input orientation).
 (esu units = cm**3 , SI units = C**2 m**2 J**-1)
 Alpha(0;0):
               (au)            (10**-24 esu)      (10**-40 SI)
   iso        0.265833D+02      0.393923D+01      0.438299D+01
   aniso      0.105880D+02      0.156898D+01      0.174573D+01
   xx         0.316997D+02      0.469741D+01      0.522658D+01
   yx         0.174849D-03      0.259100D-04      0.288288D-04
   yy         0.282364D+02      0.418420D+01      0.465555D+01
   zx         0.000000D+00      0.000000D+00      0.000000D+00
   zy         0.000000D+00      0.000000D+00      0.000000D+00
   zz         0.198137D+02      0.293609D+01      0.326684D+01

 First dipole hyperpolarizability, Beta (input orientation).
 ||, _|_  parallel and perpendicular components, (z) with respect to z axis,
 vector components x,y,z.  Values do not include the 1/n! factor of 1/2.
 (esu units = statvolt**-1 cm**4 , SI units = C**3 m**3 J**-2)
 Beta(0;0,0):
               (au)            (10**-30 esu)      (10**-50 SI)
   || (z)     0.000000D+00      0.000000D+00      0.000000D+00
   _|_(z)     0.000000D+00      0.000000D+00      0.000000D+00
   x         -0.237041D-01     -0.204785D-03     -0.760040D-04
   y          0.469524D+03      0.405632D+01      0.150546D+01
   z          0.000000D+00      0.000000D+00      0.000000D+00
   ||         0.939048D+02      0.811264D+00      0.301093D+00
   xxx       -0.601797D-02     -0.519906D-04     -0.192958D-04
   xxy        0.397340D+02      0.343271D+00      0.127402D+00
   yxy       -0.130430D-02     -0.112681D-04     -0.418204D-05
   yyy        0.105303D+03      0.909737D+00      0.337640D+00
   xxz        0.000000D+00      0.000000D+00      0.000000D+00
   yxz        0.000000D+00      0.000000D+00      0.000000D+00
   yyz        0.000000D+00      0.000000D+00      0.000000D+00
   zxz       -0.579105D-03     -0.500301D-05     -0.185682D-05
   zyz        0.114707D+02      0.990982D-01      0.367793D-01
   zzz        0.000000D+00      0.000000D+00      0.000000D+00

 ----------------------------------------------------------------------

 Dipole orientation:
     8         -2.10795046         -0.00010642         -0.37508713
     8          2.10795013          0.00010642         -0.37508713
     6         -0.00000016         -0.00000000          0.59944239
     1         -0.00000016         -0.00000000          2.71560585

 Electric dipole moment (dipole orientation):
 (Debye = 10**-18 statcoulomb cm , SI units = C m)
                  (au)            (Debye)         (10**-30 SI)
   Tot        0.680955D+00      0.173082D+01      0.577338D+01
   x          0.000000D+00      0.000000D+00      0.000000D+00
   y          0.000000D+00      0.000000D+00      0.000000D+00
   z          0.680955D+00      0.173082D+01      0.577338D+01

 Dipole polarizability, Alpha (dipole orientation).
 (esu units = cm**3 , SI units = C**2 m**2 J**-1)
 Alpha(0;0):
               (au)            (10**-24 esu)      (10**-40 SI)
   iso        0.265833D+02      0.393923D+01      0.438299D+01
   aniso      0.105880D+02      0.156898D+01      0.174573D+01
   xx         0.316997D+02      0.469741D+01      0.522658D+01
   yx         0.600070D-03      0.889212D-04      0.989382D-04
   yy         0.198137D+02      0.293609D+01      0.326684D+01
   zx         0.000000D+00      0.000000D+00      0.000000D+00
   zy         0.000000D+00      0.000000D+00      0.000000D+00
   zz         0.282364D+02      0.418420D+01      0.465555D+01

 First dipole hyperpolarizability, Beta (dipole orientation).
 ||, _|_  parallel and perpendicular components, (z) with respect to z axis,
 vector components x,y,z.  Values do not include the 1/n! factor of 1/2.
 (esu units = statvolt**-1 cm**4 , SI units = C**3 m**3 J**-2)
 Beta(0;0,0):
               (au)            (10**-30 esu)      (10**-50 SI)
   || (z)     0.939048D+02      0.811264D+00      0.301093D+00
   _|_(z)     0.313016D+02      0.270421D+00      0.100364D+00
   x          0.000000D+00      0.000000D+00      0.000000D+00
   y          0.000000D+00      0.000000D+00      0.000000D+00
   z          0.469524D+03      0.405632D+01      0.150546D+01
   ||         0.939048D+02      0.811264D+00      0.301093D+00
   xxx        0.000000D+00      0.000000D+00      0.000000D+00
   xxy        0.000000D+00      0.000000D+00      0.000000D+00
   yxy        0.000000D+00      0.000000D+00      0.000000D+00
   yyy        0.000000D+00      0.000000D+00      0.000000D+00
   xxz        0.397340D+02      0.343271D+00      0.127402D+00
   yxz        0.142689D-02      0.123272D-04      0.457511D-05
   yyz        0.114707D+02      0.990982D-01      0.367793D-01
   zxz        0.000000D+00      0.000000D+00      0.000000D+00
   zyz        0.000000D+00      0.000000D+00      0.000000D+00
   zzz        0.105303D+03      0.909737D+00      0.337640D+00

 ----------------------------------------------------------------------

 Test job not archived.
 1\1\NSC-N1417\Freq\RHF\Aug-CC-pVTZ\C1H1O2(1-)\X_DAVVA\19-Jun-2024\0\\#
 P Geom=AllCheck Guess=TCheck SCRF=Check Test GenChk RHF/Aug-CC-pVTZ Fr
 eq\\formate\\-1,1\O,-1.1154693247,-0.1985438757,0.\O,1.1154891922,-0.1
 984312448,0.\C,-0.0000161015,0.3172112531,0.\H,-0.0000726364,1.4370367
 305,0.\\Version=ES64L-G16RevC.01\State=1-A1\HF=-188.2760204\RMSD=6.035
 e-10\RMSF=8.659e-09\ZeroPoint=0.0218898\Thermal=0.0248225\ETot=-188.25
 11979\HTot=-188.2502537\GTot=-188.2772138\Dipole=-0.0000344,0.6809553,
 0.\DipoleDeriv=-1.893055,-0.2987342,0.,-0.5711451,-0.9874189,0.,0.,0.,
 -0.6173562,-1.8931428,0.2986428,0.,0.5710536,-0.9873311,0.,0.,0.,-0.61
 73562,2.793372,0.0000601,0.,0.0000604,1.5983189,0.,0.,0.,0.2046494,-0.
 0071742,0.0000311,0.,0.000031,-0.6235687,0.,0.,0.,0.0300629\Polar=31.6
 997154,0.0001748,28.2363529,0.,0.,19.8137099\PolarDeriv=-9.0225748,-1.
 6079616,1.9430081,0.,0.,-2.7483258,-3.5526882,-2.0705384,2.3489691,0.,
 0.,-0.7522943,0.,0.,0.,-2.8192367,-1.7812283,0.,9.0232581,-1.6070633,-
 1.9435699,0.,0.,2.7484017,-3.5521952,2.0697802,2.349191,0.,0.,-0.75201
 68,0.,0.,0.,2.8194166,-1.7809436,0.,-0.0005368,2.207974,0.0012839,0.,0
 .,0.0000459,6.3087943,0.0014897,-20.9915822,0.,0.,-0.8305554,0.,0.,0.,
 -0.0000616,1.2224678,0.,-0.0001415,1.0070511,-0.0007207,0.,0.,-0.00011
 76,0.7960848,-0.0007311,16.293421,0.,0.,2.3348629,0.,0.,0.,-0.0001177,
 2.3397047,0.\HyperPolar=-0.006018,39.7340463,-0.0013043,105.3031853,0.
 ,0.,0.,-0.0005791,11.470729,0.\Quadrupole=-4.8458252,1.8732083,2.97261
 69,-0.0003392,0.,0.\PG=C02V [C2(C1H1),SGV(O2)]\NImag=0\\0.64471507,0.2
 4577669,0.22065106,0.,0.,0.03224870,-0.13923519,0.00115037,0.,0.644764
 70,-0.00117040,0.05911872,0.,-0.24573387,0.22060143,0.,0.,0.03224871,0
 .,0.,0.03224870,-0.49232011,-0.19975649,0.,-0.49236175,0.19973127,0.,1
 .04020746,-0.21239325,-0.24227998,0.,0.21236800,-0.24223836,0.,0.00001
 756,0.69138594,0.,0.,-0.09419958,0.,0.,-0.09419958,0.,0.,0.27516019,-0
 .01315975,-0.04717056,0.,-0.01316777,0.04717302,0.,-0.05552560,0.00000
 764,0.,0.08185313,-0.03221305,-0.03748982,0.,0.03221551,-0.03748181,0.
 ,0.00000765,-0.20686757,0.,-0.00001010,0.28183918,0.,0.,0.02970218,0.,
 0.,0.02970218,0.,0.,-0.08676106,0.,0.,0.02735670\\0.,0.,0.,0.,0.,0.,0.
 ,0.,0.,0.,-0.00000002,0.\\\@


 LIFE CAN ONLY BE UNDERSTOOD BACKWARD, BUT MUST
 BE LIVED FORWARD. -- KIRKEGAARD
 Job cpu time:       0 days  0 hours  1 minutes 44.3 seconds.
 Elapsed time:       0 days  0 hours  0 minutes 13.5 seconds.
 File lengths (MBytes):  RWF=    332 Int=      0 D2E=      0 Chk=      8 Scr=      8
 Normal termination of Gaussian 16 at Wed Jun 19 08:45:09 2024.
