 Entering Gaussian System, Link 0=/software/sse/easybuild/prefix/software/Gaussian/16.C.01-avx2-nsc1/g16/g16.orig
 Input=ethylammonium-19-oep.wrap
 Output=ethylammonium-19-oep.log
 Initial command:
 /software/sse/easybuild/prefix/software/Gaussian/16.C.01-avx2-nsc1/g16/l1.exe "ethylammonium-19-oep..dir/Gau-1389403.inp" -scrdir="ethylammonium-19-oep..dir/"
 Entering Link 1 = /software/sse/easybuild/prefix/software/Gaussian/16.C.01-avx2-nsc1/g16/l1.exe PID=   1389404.
  
 Copyright (c) 1988-2019, Gaussian, Inc.  All Rights Reserved.
  
 This is part of the Gaussian(R) 16 program.  It is based on
 the Gaussian(R) 09 system (copyright 2009, Gaussian, Inc.),
 the Gaussian(R) 03 system (copyright 2003, Gaussian, Inc.),
 the Gaussian(R) 98 system (copyright 1998, Gaussian, Inc.),
 the Gaussian(R) 94 system (copyright 1995, Gaussian, Inc.),
 the Gaussian 92(TM) system (copyright 1992, Gaussian, Inc.),
 the Gaussian 90(TM) system (copyright 1990, Gaussian, Inc.),
 the Gaussian 88(TM) system (copyright 1988, Gaussian, Inc.),
 the Gaussian 86(TM) system (copyright 1986, Carnegie Mellon
 University), and the Gaussian 82(TM) system (copyright 1983,
 Carnegie Mellon University). Gaussian is a federally registered
 trademark of Gaussian, Inc.
  
 This software contains proprietary and confidential information,
 including trade secrets, belonging to Gaussian, Inc.
  
 This software is provided under written license and may be
 used, copied, transmitted, or stored only in accord with that
 written license.
  
 The following legend is applicable only to US Government
 contracts under FAR:
  
                    RESTRICTED RIGHTS LEGEND
  
 Use, reproduction and disclosure by the US Government is
 subject to restrictions as set forth in subparagraphs (a)
 and (c) of the Commercial Computer Software - Restricted
 Rights clause in FAR 52.227-19.
  
 Gaussian, Inc.
 340 Quinnipiac St., Bldg. 40, Wallingford CT 06492
  
  
 ---------------------------------------------------------------
 Warning -- This program may not be used in any manner that
 competes with the business of Gaussian, Inc. or will provide
 assistance to any competitor of Gaussian, Inc.  The licensee
 of this program is prohibited from giving any competitor of
 Gaussian, Inc. access to this program.  By using this program,
 the user acknowledges that Gaussian, Inc. is engaged in the
 business of creating and licensing software in the field of
 computational chemistry and represents and warrants to the
 licensee that it is not a competitor of Gaussian, Inc. and that
 it will not use this program in any manner prohibited above.
 ---------------------------------------------------------------
  

 Cite this work as:
 Gaussian 16, Revision C.01,
 M. J. Frisch, G. W. Trucks, H. B. Schlegel, G. E. Scuseria, 
 M. A. Robb, J. R. Cheeseman, G. Scalmani, V. Barone, 
 G. A. Petersson, H. Nakatsuji, X. Li, M. Caricato, A. V. Marenich, 
 J. Bloino, B. G. Janesko, R. Gomperts, B. Mennucci, H. P. Hratchian, 
 J. V. Ortiz, A. F. Izmaylov, J. L. Sonnenberg, D. Williams-Young, 
 F. Ding, F. Lipparini, F. Egidi, J. Goings, B. Peng, A. Petrone, 
 T. Henderson, D. Ranasinghe, V. G. Zakrzewski, J. Gao, N. Rega, 
 G. Zheng, W. Liang, M. Hada, M. Ehara, K. Toyota, R. Fukuda, 
 J. Hasegawa, M. Ishida, T. Nakajima, Y. Honda, O. Kitao, H. Nakai, 
 T. Vreven, K. Throssell, J. A. Montgomery, Jr., J. E. Peralta, 
 F. Ogliaro, M. J. Bearpark, J. J. Heyd, E. N. Brothers, K. N. Kudin, 
 V. N. Staroverov, T. A. Keith, R. Kobayashi, J. Normand, 
 K. Raghavachari, A. P. Rendell, J. C. Burant, S. S. Iyengar, 
 J. Tomasi, M. Cossi, J. M. Millam, M. Klene, C. Adamo, R. Cammi, 
 J. W. Ochterski, R. L. Martin, K. Morokuma, O. Farkas, 
 J. B. Foresman, and D. J. Fox, Gaussian, Inc., Wallingford CT, 2019.
 
 ******************************************
 Gaussian 16:  ES64L-G16RevC.01  3-Jul-2019
                19-Jun-2024 
 ******************************************
 %mem=12000MB
 %nprocshared=8
 Will use up to    8 processors via shared memory.
 %chk=ethylammonium19.chk
 ----------------------------------------------------------------------
 #P HF/aug-cc-pvtz Opt=(Redundant, calcall, verytight) symm=(loose,foll
 ow) Pop=(MK,Hirshfeld,ReadRadii) iop(6/33=2) iop(6/42=6) Polar Freq ma
 xdisk=128GB
 ----------------------------------------------------------------------
 1/7=1,10=4,18=20,19=15,38=1/1,3;
 2/9=110,12=2,17=4,18=3,40=1/2;
 3/5=16,6=1,7=10,11=9,25=1,30=1,71=2,140=1/1,2,3;
 4//1;
 5/5=2,38=5,98=1/2;
 8/6=4,10=90,11=11/1;
 11/6=1,8=1,9=11,15=111,16=1/1,2,10;
 10/6=1/2;
 6/7=2,8=2,9=2,10=2,15=8,18=1,20=101,28=1,33=2,42=6,79=1/1,2;
 7/10=1,25=1/1,2,3,16;
 1/7=1,10=4,18=20,19=15/3(3);
 2/9=110,15=5/2;
 7/8=1,9=1,25=1,44=-1/16;
 99//99;
 2/9=110,15=5/2;
 3/5=16,6=1,7=10,11=9,25=1,30=1,71=2,140=1/1,2,3;
 4/5=5,16=3,69=1/1;
 5/5=2,38=5,98=1/2;
 8/6=4,10=90,11=11/1;
 11/6=1,8=1,9=11,15=111,16=1/1,2,10;
 10/6=1/2;
 7/10=1,25=1/1,2,3,16;
 1/7=1,10=4,18=20,19=15/3(-8);
 2/9=110,15=5/2;
 6/7=2,8=2,9=2,10=2,15=8,18=1,19=2,20=101,28=1,33=2,42=6,79=1/1,2;
 7/8=1,9=1,25=1,44=-1/16;
 99//99;
 Leave Link    1 at Wed Jun 19 13:24:13 2024, MaxMem=  1572864000 cpu:               1.7 elap:               0.2
 (Enter /software/sse/easybuild/prefix/software/Gaussian/16.C.01-avx2-nsc1/g16/l101.exe)
 -------------
 ethylammonium
 -------------
 Symbolic Z-matrix:
 Charge =  1 Multiplicity = 1
 N                    -1.20474  -0.27214   0.01112 
 C                     0.04739   0.60997   0.00934 
 H                    -2.06401   0.28553   0.03132 
 H                    -1.21662  -0.89282   0.82666 
 H                    -1.23793  -0.86588  -0.82366 
 H                    -0.02199   1.22399   0.9073 
 H                    -0.04489   1.2529   -0.86604 
 C                     1.30328  -0.24032  -0.02075 
 H                     1.38337  -0.88369   0.85911 
 H                     2.17094   0.42184  -0.02122 
 H                     1.36029  -0.85471  -0.92284 
 
 ITRead=  0  0  0  0  0  0  0  0  0  0  0
 MicOpt= -1 -1 -1 -1 -1 -1 -1 -1 -1 -1 -1
 NAtoms=     11 NQM=       11 NQMF=       0 NMMI=      0 NMMIF=      0
                NMic=       0 NMicF=      0.
                    Isotopes and Nuclear Properties:
 (Nuclear quadrupole moments (NQMom) in fm**2, nuclear magnetic moments (NMagM)
  in nuclear magnetons)

  Atom         1           2           3           4           5           6           7           8           9          10
 IAtWgt=          14          12           1           1           1           1           1          12           1           1
 AtmWgt=  14.0030740  12.0000000   1.0078250   1.0078250   1.0078250   1.0078250   1.0078250  12.0000000   1.0078250   1.0078250
 NucSpn=           2           0           1           1           1           1           1           0           1           1
 AtZEff=  -0.0000000  -0.0000000  -0.0000000  -0.0000000  -0.0000000  -0.0000000  -0.0000000  -0.0000000  -0.0000000  -0.0000000
 NQMom=    2.0440000   0.0000000   0.0000000   0.0000000   0.0000000   0.0000000   0.0000000   0.0000000   0.0000000   0.0000000
 NMagM=    0.4037610   0.0000000   2.7928460   2.7928460   2.7928460   2.7928460   2.7928460   0.0000000   2.7928460   2.7928460
 AtZNuc=   7.0000000   6.0000000   1.0000000   1.0000000   1.0000000   1.0000000   1.0000000   6.0000000   1.0000000   1.0000000

  Atom        11
 IAtWgt=           1
 AtmWgt=   1.0078250
 NucSpn=           1
 AtZEff=  -0.0000000
 NQMom=    0.0000000
 NMagM=    2.7928460
 AtZNuc=   1.0000000
 Leave Link  101 at Wed Jun 19 13:24:14 2024, MaxMem=  1572864000 cpu:               2.0 elap:               0.3
 (Enter /software/sse/easybuild/prefix/software/Gaussian/16.C.01-avx2-nsc1/g16/l103.exe)

 GradGradGradGradGradGradGradGradGradGradGradGradGradGradGradGradGradGrad
 Berny optimization.
 Initialization pass.
                           ----------------------------
                           !    Initial Parameters    !
                           ! (Angstroms and Degrees)  !
 --------------------------                            --------------------------
 ! Name  Definition              Value          Derivative Info.                !
 --------------------------------------------------------------------------------
 ! R1    R(1,2)                  1.5317         calculate D2E/DX2 analytically  !
 ! R2    R(1,3)                  1.0246         calculate D2E/DX2 analytically  !
 ! R3    R(1,4)                  1.0249         calculate D2E/DX2 analytically  !
 ! R4    R(1,5)                  1.0249         calculate D2E/DX2 analytically  !
 ! R5    R(2,6)                  1.09           calculate D2E/DX2 analytically  !
 ! R6    R(2,7)                  1.09           calculate D2E/DX2 analytically  !
 ! R7    R(2,8)                  1.517          calculate D2E/DX2 analytically  !
 ! R8    R(8,9)                  1.0929         calculate D2E/DX2 analytically  !
 ! R9    R(8,10)                 1.0915         calculate D2E/DX2 analytically  !
 ! R10   R(8,11)                 1.0929         calculate D2E/DX2 analytically  !
 ! A1    A(2,1,3)              111.8489         calculate D2E/DX2 analytically  !
 ! A2    A(2,1,4)              111.0484         calculate D2E/DX2 analytically  !
 ! A3    A(2,1,5)              111.048          calculate D2E/DX2 analytically  !
 ! A4    A(3,1,4)              107.7108         calculate D2E/DX2 analytically  !
 ! A5    A(3,1,5)              107.7109         calculate D2E/DX2 analytically  !
 ! A6    A(4,1,5)              107.2713         calculate D2E/DX2 analytically  !
 ! A7    A(1,2,6)              105.749          calculate D2E/DX2 analytically  !
 ! A8    A(1,2,7)              105.7487         calculate D2E/DX2 analytically  !
 ! A9    A(1,2,8)              110.7335         calculate D2E/DX2 analytically  !
 ! A10   A(6,2,7)              108.9006         calculate D2E/DX2 analytically  !
 ! A11   A(6,2,8)              112.6303         calculate D2E/DX2 analytically  !
 ! A12   A(7,2,8)              112.6295         calculate D2E/DX2 analytically  !
 ! A13   A(2,8,9)              112.0031         calculate D2E/DX2 analytically  !
 ! A14   A(2,8,10)             108.5475         calculate D2E/DX2 analytically  !
 ! A15   A(2,8,11)             112.0029         calculate D2E/DX2 analytically  !
 ! A16   A(9,8,10)             107.4109         calculate D2E/DX2 analytically  !
 ! A17   A(9,8,11)             109.253          calculate D2E/DX2 analytically  !
 ! A18   A(10,8,11)            107.411          calculate D2E/DX2 analytically  !
 ! D1    D(3,1,2,6)             57.7079         calculate D2E/DX2 analytically  !
 ! D2    D(3,1,2,7)            -57.7101         calculate D2E/DX2 analytically  !
 ! D3    D(3,1,2,8)            179.9995         calculate D2E/DX2 analytically  !
 ! D4    D(4,1,2,6)            -62.6561         calculate D2E/DX2 analytically  !
 ! D5    D(4,1,2,7)           -178.0741         calculate D2E/DX2 analytically  !
 ! D6    D(4,1,2,8)             59.6355         calculate D2E/DX2 analytically  !
 ! D7    D(5,1,2,6)            178.0717         calculate D2E/DX2 analytically  !
 ! D8    D(5,1,2,7)             62.6538         calculate D2E/DX2 analytically  !
 ! D9    D(5,1,2,8)            -59.6367         calculate D2E/DX2 analytically  !
 ! D10   D(1,2,8,9)            -61.5798         calculate D2E/DX2 analytically  !
 ! D11   D(1,2,8,10)           179.9964         calculate D2E/DX2 analytically  !
 ! D12   D(1,2,8,11)            61.5727         calculate D2E/DX2 analytically  !
 ! D13   D(6,2,8,9)             56.5996         calculate D2E/DX2 analytically  !
 ! D14   D(6,2,8,10)           -61.8243         calculate D2E/DX2 analytically  !
 ! D15   D(6,2,8,11)           179.752          calculate D2E/DX2 analytically  !
 ! D16   D(7,2,8,9)           -179.7583         calculate D2E/DX2 analytically  !
 ! D17   D(7,2,8,10)            61.8179         calculate D2E/DX2 analytically  !
 ! D18   D(7,2,8,11)           -56.6058         calculate D2E/DX2 analytically  !
 --------------------------------------------------------------------------------
 Trust Radius=3.00D-01 FncErr=1.00D-07 GrdErr=1.00D-07 EigMax=2.50D+02 EigMin=1.00D-04
 Number of steps in this run=     56 maximum allowed number of steps=    100.
 GradGradGradGradGradGradGradGradGradGradGradGradGradGradGradGradGradGrad

 Leave Link  103 at Wed Jun 19 13:24:14 2024, MaxMem=  1572864000 cpu:               0.1 elap:               0.0
 (Enter /software/sse/easybuild/prefix/software/Gaussian/16.C.01-avx2-nsc1/g16/l202.exe)
                          Input orientation:                          
 ---------------------------------------------------------------------
 Center     Atomic      Atomic             Coordinates (Angstroms)
 Number     Number       Type             X           Y           Z
 ---------------------------------------------------------------------
      1          7           0       -1.204745   -0.272143    0.011120
      2          6           0        0.047392    0.609966    0.009339
      3          1           0       -2.064013    0.285530    0.031323
      4          1           0       -1.216615   -0.892820    0.826661
      5          1           0       -1.237932   -0.865880   -0.823661
      6          1           0       -0.021991    1.223989    0.907303
      7          1           0       -0.044888    1.252900   -0.866044
      8          6           0        1.303284   -0.240324   -0.020751
      9          1           0        1.383371   -0.883693    0.859113
     10          1           0        2.170935    0.421837   -0.021220
     11          1           0        1.360291   -0.854714   -0.922844
 ---------------------------------------------------------------------
                    Distance matrix (angstroms):
                    1          2          3          4          5
     1  N    0.000000
     2  C    1.531655   0.000000
     3  H    1.024573   2.136299   0.000000
     4  H    1.024933   2.126992   1.655039   0.000000
     5  H    1.024931   2.126986   1.655039   1.650680   0.000000
     6  H    2.107240   1.090036   2.412032   2.431977   2.973601
     7  H    2.107235   1.090034   2.412040   2.973602   2.431950
     8  C    2.508433   1.516959   3.408507   2.737471   2.737474
     9  H    2.791313   2.176689   3.733199   2.600205   3.115008
    10  H    3.446429   2.132079   4.237467   3.731316   3.731287
    11  H    2.791252   2.176685   3.733155   3.114910   2.600139
                    6          7          8          9         10
     6  H    0.000000
     7  H    1.773730   0.000000
     8  C    2.182166   2.182156   0.000000
     9  H    2.533710   3.095338   1.092931   0.000000
    10  H    2.512872   2.512820   1.091456   1.760583   0.000000
    11  H    3.095343   2.533731   1.092930   1.782342   1.760583
                   11
    11  H    0.000000
 Stoichiometry    C2H8N(1+)
 Framework group  C1[X(C2H8N)]
 Deg. of freedom    27
 Full point group                 C1      NOp   1
 Largest Abelian subgroup         C1      NOp   1
 Largest concise Abelian subgroup C1      NOp   1
                         Standard orientation:                         
 ---------------------------------------------------------------------
 Center     Atomic      Atomic             Coordinates (Angstroms)
 Number     Number       Type             X           Y           Z
 ---------------------------------------------------------------------
      1          7           0       -1.210651   -0.244786    0.000000
      2          6           0        0.061091    0.608818    0.000001
      3          1           0       -2.057238    0.332309    0.000009
      4          1           0       -1.246819   -0.851419    0.825335
      5          1           0       -1.246822   -0.851400   -0.825345
      6          1           0       -0.005607    1.239064    0.886860
      7          1           0       -0.005602    1.239046   -0.886870
      8          6           0        1.297657   -0.269855    0.000001
      9          1           0        1.352094   -0.900169    0.891202
     10          1           0        2.180038    0.372547   -0.000064
     11          1           0        1.352026   -0.900258   -0.891140
 ---------------------------------------------------------------------
 Rotational constants (GHZ):          29.4556688           8.2568965           7.2983379
 Leave Link  202 at Wed Jun 19 13:24:14 2024, MaxMem=  1572864000 cpu:               0.0 elap:               0.0
 (Enter /software/sse/easybuild/prefix/software/Gaussian/16.C.01-avx2-nsc1/g16/l301.exe)
 Standard basis: Aug-CC-pVTZ (5D, 7F)
 Ernie: Thresh=  0.10000D-02 Tol=  0.10000D-05 Strict=F.
 Ernie:  9 primitive shells out of 178 were deleted.
 There are   365 symmetry adapted cartesian basis functions of A   symmetry.
 There are   322 symmetry adapted basis functions of A   symmetry.
   322 basis functions,   432 primitive gaussians,   365 cartesian basis functions
    13 alpha electrons       13 beta electrons
       nuclear repulsion energy        89.6079090703 Hartrees.
 IExCor=    0 DFT=F Ex=HF Corr=None ExCW=0 ScaHFX=  1.000000
 ScaDFX=  1.000000  1.000000  1.000000  1.000000 ScalE2=  1.000000  1.000000
 IRadAn=      5 IRanWt=     -1 IRanGd=            0 ICorTp=0 IEmpDi=  4
 NAtoms=   11 NActive=   11 NUniq=   11 SFac= 1.00D+00 NAtFMM=   60 NAOKFM=F Big=F
 Integral buffers will be    131072 words long.
 Raffenetti 1 integral format.
 Two-electron integral symmetry is turned on.
 Leave Link  301 at Wed Jun 19 13:24:14 2024, MaxMem=  1572864000 cpu:               0.5 elap:               0.1
 (Enter /software/sse/easybuild/prefix/software/Gaussian/16.C.01-avx2-nsc1/g16/l302.exe)
 NPDir=0 NMtPBC=     1 NCelOv=     1 NCel=       1 NClECP=     1 NCelD=      1
         NCelK=      1 NCelE2=     1 NClLst=     1 CellRange=     0.0.
 One-electron integrals computed using PRISM.
 One-electron integral symmetry used in STVInt
 NBasis=   322 RedAO= T EigKep=  1.35D-05  NBF=   322
 NBsUse=   322 1.00D-06 EigRej= -1.00D+00 NBFU=   322
 Leave Link  302 at Wed Jun 19 13:24:14 2024, MaxMem=  1572864000 cpu:               1.4 elap:               0.2
 (Enter /software/sse/easybuild/prefix/software/Gaussian/16.C.01-avx2-nsc1/g16/l303.exe)
 DipDrv:  MaxL=1.
 Leave Link  303 at Wed Jun 19 13:24:14 2024, MaxMem=  1572864000 cpu:               0.3 elap:               0.1
 (Enter /software/sse/easybuild/prefix/software/Gaussian/16.C.01-avx2-nsc1/g16/l401.exe)
 ExpMin= 2.53D-02 ExpMax= 1.14D+04 ExpMxC= 3.89D+02 IAcc=3 IRadAn=         5 AccDes= 0.00D+00
 Harris functional with IExCor=  205 and IRadAn=       5 diagonalized for initial guess.
 HarFok:  IExCor=  205 AccDes= 0.00D+00 IRadAn=         5 IDoV= 1 UseB2=F ITyADJ=14
 ICtDFT=  3500011 ScaDFX=  1.000000  1.000000  1.000000  1.000000
 FoFCou: FMM=F IPFlag=           0 FMFlag=      100000 FMFlg1=           0
         NFxFlg=           0 DoJE=T BraDBF=F KetDBF=T FulRan=T
         wScrn=  0.000000 ICntrl=       500 IOpCl=  0 I1Cent=   200000004 NGrid=           0
         NMat0=    1 NMatS0=      1 NMatT0=    0 NMatD0=    1 NMtDS0=    0 NMtDT0=    0
 Petite list used in FoFCou.
 Harris En= -135.029710475085    
 JPrj=0 DoOrth=F DoCkMO=F.
 Leave Link  401 at Wed Jun 19 13:24:15 2024, MaxMem=  1572864000 cpu:               4.4 elap:               0.6
 (Enter /software/sse/easybuild/prefix/software/Gaussian/16.C.01-avx2-nsc1/g16/l502.exe)
 Keep R1 ints in memory in canonical form, NReq=1376697617.
 FoFCou: FMM=F IPFlag=           0 FMFlag=           0 FMFlg1=           0
         NFxFlg=           0 DoJE=F BraDBF=F KetDBF=F FulRan=T
         wScrn=  0.000000 ICntrl=       600 IOpCl=  0 I1Cent=           0 NGrid=           0
         NMat0=    1 NMatS0=  52003 NMatT0=    0 NMatD0=    1 NMtDS0=    0 NMtDT0=    0
 Symmetry not used in FoFCou.
 Two-electron integral symmetry not used.
 Closed shell SCF:
 Using DIIS extrapolation, IDIIS=  1040.
 NGot=  1572864000 LenX=   220409238 LenY=   220275572
 Requested convergence on RMS density matrix=1.00D-08 within 128 cycles.
 Requested convergence on MAX density matrix=1.00D-06.
 Requested convergence on             energy=1.00D-06.
 No special actions if energy rises.

 Cycle   1  Pass 1  IDiag  1:
 E= -134.504022706592    
 DIIS: error= 2.58D-02 at cycle   1 NSaved=   1.
 NSaved= 1 IEnMin= 1 EnMin= -134.504022706592     IErMin= 1 ErrMin= 2.58D-02
 ErrMax= 2.58D-02  0.00D+00 EMaxC= 1.00D-01 BMatC= 3.22D-01 BMatP= 3.22D-01
 IDIUse=3 WtCom= 7.42D-01 WtEn= 2.58D-01
 Coeff-Com:  0.100D+01
 Coeff-En:   0.100D+01
 Coeff:      0.100D+01
 Gap=     0.545 Goal=   None    Shift=    0.000
 GapD=    0.545 DampG=2.000 DampE=0.500 DampFc=1.0000 IDamp=-1.
 RMSDP=1.37D-03 MaxDP=5.83D-02              OVMax= 1.18D-01

 Cycle   2  Pass 1  IDiag  1:
 E= -134.650728526305     Delta-E=       -0.146705819713 Rises=F Damp=F
 DIIS: error= 1.12D-02 at cycle   2 NSaved=   2.
 NSaved= 2 IEnMin= 2 EnMin= -134.650728526305     IErMin= 2 ErrMin= 1.12D-02
 ErrMax= 1.12D-02  0.00D+00 EMaxC= 1.00D-01 BMatC= 2.61D-02 BMatP= 3.22D-01
 IDIUse=3 WtCom= 8.88D-01 WtEn= 1.12D-01
 Coeff-Com:  0.136D+00 0.864D+00
 Coeff-En:   0.000D+00 0.100D+01
 Coeff:      0.121D+00 0.879D+00
 Gap=     0.645 Goal=   None    Shift=    0.000
 RMSDP=5.16D-04 MaxDP=2.49D-02 DE=-1.47D-01 OVMax= 4.75D-02

 Cycle   3  Pass 1  IDiag  1:
 E= -134.672334201130     Delta-E=       -0.021605674826 Rises=F Damp=F
 DIIS: error= 3.35D-03 at cycle   3 NSaved=   3.
 NSaved= 3 IEnMin= 3 EnMin= -134.672334201130     IErMin= 3 ErrMin= 3.35D-03
 ErrMax= 3.35D-03  0.00D+00 EMaxC= 1.00D-01 BMatC= 1.95D-03 BMatP= 2.61D-02
 IDIUse=3 WtCom= 9.66D-01 WtEn= 3.35D-02
 Coeff-Com: -0.257D-01 0.168D+00 0.858D+00
 Coeff-En:   0.000D+00 0.000D+00 0.100D+01
 Coeff:     -0.248D-01 0.162D+00 0.863D+00
 Gap=     0.578 Goal=   None    Shift=    0.000
 RMSDP=1.07D-04 MaxDP=4.18D-03 DE=-2.16D-02 OVMax= 9.68D-03

 Cycle   4  Pass 1  IDiag  1:
 E= -134.674255487183     Delta-E=       -0.001921286053 Rises=F Damp=F
 DIIS: error= 4.62D-04 at cycle   4 NSaved=   4.
 NSaved= 4 IEnMin= 4 EnMin= -134.674255487183     IErMin= 4 ErrMin= 4.62D-04
 ErrMax= 4.62D-04  0.00D+00 EMaxC= 1.00D-01 BMatC= 3.30D-05 BMatP= 1.95D-03
 IDIUse=3 WtCom= 9.95D-01 WtEn= 4.62D-03
 Coeff-Com:  0.829D-03-0.333D-01-0.919D-01 0.112D+01
 Coeff-En:   0.000D+00 0.000D+00 0.000D+00 0.100D+01
 Coeff:      0.825D-03-0.331D-01-0.914D-01 0.112D+01
 Gap=     0.579 Goal=   None    Shift=    0.000
 RMSDP=3.11D-05 MaxDP=2.01D-03 DE=-1.92D-03 OVMax= 3.10D-03

 Cycle   5  Pass 1  IDiag  1:
 E= -134.674324528728     Delta-E=       -0.000069041545 Rises=F Damp=F
 DIIS: error= 1.10D-04 at cycle   5 NSaved=   5.
 NSaved= 5 IEnMin= 5 EnMin= -134.674324528728     IErMin= 5 ErrMin= 1.10D-04
 ErrMax= 1.10D-04  0.00D+00 EMaxC= 1.00D-01 BMatC= 3.64D-06 BMatP= 3.30D-05
 IDIUse=3 WtCom= 9.99D-01 WtEn= 1.10D-03
 Coeff-Com:  0.211D-02-0.156D-01-0.740D-01 0.144D-01 0.107D+01
 Coeff-En:   0.000D+00 0.000D+00 0.000D+00 0.000D+00 0.100D+01
 Coeff:      0.211D-02-0.156D-01-0.739D-01 0.144D-01 0.107D+01
 Gap=     0.579 Goal=   None    Shift=    0.000
 RMSDP=9.60D-06 MaxDP=5.16D-04 DE=-6.90D-05 OVMax= 1.09D-03

 Cycle   6  Pass 1  IDiag  1:
 E= -134.674331956950     Delta-E=       -0.000007428222 Rises=F Damp=F
 DIIS: error= 3.28D-05 at cycle   6 NSaved=   6.
 NSaved= 6 IEnMin= 6 EnMin= -134.674331956950     IErMin= 6 ErrMin= 3.28D-05
 ErrMax= 3.28D-05  0.00D+00 EMaxC= 1.00D-01 BMatC= 2.53D-07 BMatP= 3.64D-06
 IDIUse=1 WtCom= 1.00D+00 WtEn= 0.00D+00
 Coeff-Com:  0.308D-03-0.757D-03-0.600D-02-0.633D-01 0.145D+00 0.924D+00
 Coeff:      0.308D-03-0.757D-03-0.600D-02-0.633D-01 0.145D+00 0.924D+00
 Gap=     0.579 Goal=   None    Shift=    0.000
 RMSDP=2.01D-06 MaxDP=7.88D-05 DE=-7.43D-06 OVMax= 2.81D-04

 Cycle   7  Pass 1  IDiag  1:
 E= -134.674332365526     Delta-E=       -0.000000408576 Rises=F Damp=F
 DIIS: error= 8.75D-06 at cycle   7 NSaved=   7.
 NSaved= 7 IEnMin= 7 EnMin= -134.674332365526     IErMin= 7 ErrMin= 8.75D-06
 ErrMax= 8.75D-06  0.00D+00 EMaxC= 1.00D-01 BMatC= 2.22D-08 BMatP= 2.53D-07
 IDIUse=1 WtCom= 1.00D+00 WtEn= 0.00D+00
 Coeff-Com: -0.193D-03 0.153D-02 0.718D-02-0.231D-02-0.102D+00 0.151D-01
 Coeff-Com:  0.108D+01
 Coeff:     -0.193D-03 0.153D-02 0.718D-02-0.231D-02-0.102D+00 0.151D-01
 Coeff:      0.108D+01
 Gap=     0.579 Goal=   None    Shift=    0.000
 RMSDP=6.47D-07 MaxDP=2.22D-05 DE=-4.09D-07 OVMax= 6.85D-05

 Cycle   8  Pass 1  IDiag  1:
 E= -134.674332406408     Delta-E=       -0.000000040882 Rises=F Damp=F
 DIIS: error= 2.04D-06 at cycle   8 NSaved=   8.
 NSaved= 8 IEnMin= 8 EnMin= -134.674332406408     IErMin= 8 ErrMin= 2.04D-06
 ErrMax= 2.04D-06  0.00D+00 EMaxC= 1.00D-01 BMatC= 1.26D-09 BMatP= 2.22D-08
 IDIUse=1 WtCom= 1.00D+00 WtEn= 0.00D+00
 Coeff-Com: -0.319D-04 0.169D-03 0.752D-03 0.418D-02-0.141D-01-0.591D-01
 Coeff-Com:  0.276D-01 0.104D+01
 Coeff:     -0.319D-04 0.169D-03 0.752D-03 0.418D-02-0.141D-01-0.591D-01
 Coeff:      0.276D-01 0.104D+01
 Gap=     0.579 Goal=   None    Shift=    0.000
 RMSDP=1.50D-07 MaxDP=4.84D-06 DE=-4.09D-08 OVMax= 2.27D-05

 Cycle   9  Pass 1  IDiag  1:
 E= -134.674332408972     Delta-E=       -0.000000002564 Rises=F Damp=F
 DIIS: error= 5.84D-07 at cycle   9 NSaved=   9.
 NSaved= 9 IEnMin= 9 EnMin= -134.674332408972     IErMin= 9 ErrMin= 5.84D-07
 ErrMax= 5.84D-07  0.00D+00 EMaxC= 1.00D-01 BMatC= 1.04D-10 BMatP= 1.26D-09
 IDIUse=1 WtCom= 1.00D+00 WtEn= 0.00D+00
 Coeff-Com:  0.589D-05-0.600D-04-0.337D-03 0.459D-03 0.499D-02-0.742D-02
 Coeff-Com: -0.750D-01 0.131D+00 0.947D+00
 Coeff:      0.589D-05-0.600D-04-0.337D-03 0.459D-03 0.499D-02-0.742D-02
 Coeff:     -0.750D-01 0.131D+00 0.947D+00
 Gap=     0.579 Goal=   None    Shift=    0.000
 RMSDP=4.40D-08 MaxDP=1.30D-06 DE=-2.56D-09 OVMax= 4.46D-06

 Cycle  10  Pass 1  IDiag  1:
 E= -134.674332409133     Delta-E=       -0.000000000161 Rises=F Damp=F
 DIIS: error= 1.50D-07 at cycle  10 NSaved=  10.
 NSaved=10 IEnMin=10 EnMin= -134.674332409133     IErMin=10 ErrMin= 1.50D-07
 ErrMax= 1.50D-07  0.00D+00 EMaxC= 1.00D-01 BMatC= 3.51D-12 BMatP= 1.04D-10
 IDIUse=1 WtCom= 1.00D+00 WtEn= 0.00D+00
 Coeff-Com:  0.147D-05-0.607D-05-0.318D-04-0.304D-03 0.789D-03 0.391D-02
 Coeff-Com: -0.167D-02-0.642D-01 0.468D-02 0.106D+01
 Coeff:      0.147D-05-0.607D-05-0.318D-04-0.304D-03 0.789D-03 0.391D-02
 Coeff:     -0.167D-02-0.642D-01 0.468D-02 0.106D+01
 Gap=     0.579 Goal=   None    Shift=    0.000
 RMSDP=1.17D-08 MaxDP=4.12D-07 DE=-1.61D-10 OVMax= 1.11D-06

 Cycle  11  Pass 1  IDiag  1:
 E= -134.674332409141     Delta-E=       -0.000000000008 Rises=F Damp=F
 DIIS: error= 2.91D-08 at cycle  11 NSaved=  11.
 NSaved=11 IEnMin=11 EnMin= -134.674332409141     IErMin=11 ErrMin= 2.91D-08
 ErrMax= 2.91D-08  0.00D+00 EMaxC= 1.00D-01 BMatC= 8.64D-14 BMatP= 3.51D-12
 IDIUse=1 WtCom= 1.00D+00 WtEn= 0.00D+00
 Coeff-Com: -0.348D-06 0.274D-05 0.147D-04 0.276D-04-0.265D-03-0.287D-03
 Coeff-Com:  0.270D-02 0.353D-02-0.303D-01-0.131D+00 0.116D+01
 Coeff:     -0.348D-06 0.274D-05 0.147D-04 0.276D-04-0.265D-03-0.287D-03
 Coeff:      0.270D-02 0.353D-02-0.303D-01-0.131D+00 0.116D+01
 Gap=     0.579 Goal=   None    Shift=    0.000
 RMSDP=1.97D-09 MaxDP=7.32D-08 DE=-7.84D-12 OVMax= 2.17D-07

 SCF Done:  E(RHF) =  -134.674332409     A.U. after   11 cycles
            NFock= 11  Conv=0.20D-08     -V/T= 2.0019
 KE= 1.344162306968D+02 PE=-4.863344632989D+02 EE= 1.276359911226D+02
 Leave Link  502 at Wed Jun 19 13:24:44 2024, MaxMem=  1572864000 cpu:              94.1 elap:              29.0
 (Enter /software/sse/easybuild/prefix/software/Gaussian/16.C.01-avx2-nsc1/g16/l801.exe)
 Range of M.O.s used for correlation:     1   322
 NBasis=   322 NAE=    13 NBE=    13 NFC=     0 NFV=     0
 NROrb=    322 NOA=    13 NOB=    13 NVA=   309 NVB=   309

 **** Warning!!: The largest alpha MO coefficient is  0.53139279D+02

 Leave Link  801 at Wed Jun 19 13:24:44 2024, MaxMem=  1572864000 cpu:               0.2 elap:               0.0
 (Enter /software/sse/easybuild/prefix/software/Gaussian/16.C.01-avx2-nsc1/g16/l1101.exe)
 Using compressed storage, NAtomX=    11.
 Will process     12 centers per pass.
 Leave Link 1101 at Wed Jun 19 13:24:44 2024, MaxMem=  1572864000 cpu:               2.1 elap:               0.3
 (Enter /software/sse/easybuild/prefix/software/Gaussian/16.C.01-avx2-nsc1/g16/l1102.exe)
 Symmetrizing basis deriv contribution to polar:
 IMax=3 JMax=2 DiffMx= 0.00D+00
 Leave Link 1102 at Wed Jun 19 13:24:44 2024, MaxMem=  1572864000 cpu:               0.2 elap:               0.1
 (Enter /software/sse/easybuild/prefix/software/Gaussian/16.C.01-avx2-nsc1/g16/l1110.exe)
 Forming Gx(P) for the SCF density, NAtomX=    11.
 Integral derivatives from FoFJK, PRISM(SPDF).
 Do as many integral derivatives as possible in FoFJK.
 G2DrvN: MDV=    1572862731.
 G2DrvN: will do    12 centers at a time, making    1 passes.
 Calling FoFCou, ICntrl=  3107 FMM=F I1Cent=   0 AccDes= 0.00D+00.
 FoFJK:  IHMeth= 1 ICntrl=    3107 DoSepK=F KAlg= 0 I1Cent=           0 FoldK=F
 IRaf=         0 NMat=       1 IRICut=       1 DoRegI=T DoRafI=F ISym2E= 0 IDoP0=0 IntGTp=1.
 FoFCou: FMM=F IPFlag=           0 FMFlag=      100000 FMFlg1=           0
         NFxFlg=           0 DoJE=F BraDBF=F KetDBF=F FulRan=T
         wScrn=  0.000000 ICntrl=      3107 IOpCl=  0 I1Cent=           0 NGrid=           0
         NMat0=    1 NMatS0=      1 NMatT0=    0 NMatD0=    1 NMtDS0=    0 NMtDT0=    0
 Symmetry not used in FoFCou.
 End of G2Drv F.D. properties file   721 does not exist.
 End of G2Drv F.D. properties file   722 does not exist.
 End of G2Drv F.D. properties file   788 does not exist.
 Leave Link 1110 at Wed Jun 19 13:25:23 2024, MaxMem=  1572864000 cpu:             303.7 elap:              38.2
 (Enter /software/sse/easybuild/prefix/software/Gaussian/16.C.01-avx2-nsc1/g16/l1002.exe)
 Minotr:  Closed shell wavefunction.
          IDoAtm=11111111111
          Direct CPHF calculation.
          Differentiating once with respect to electric field.
                with respect to dipole field.
          Differentiating once with respect to nuclear coordinates.
          Requested convergence is 1.0D-08 RMS, and 1.0D-07 maximum.
          Secondary convergence is 1.0D-12 RMS, and 1.0D-12 maximum.
          NewPWx=T KeepS1=F KeepF1=F KeepIn=T MapXYZ=F SortEE=F KeepMc=T.
 Keep R1 ints in memory in canonical form, NReq=1376699711.
 FoFCou: FMM=F IPFlag=           0 FMFlag=           0 FMFlg1=           0
         NFxFlg=           0 DoJE=F BraDBF=F KetDBF=F FulRan=T
         wScrn=  0.000000 ICntrl=       600 IOpCl=  0 I1Cent=           0 NGrid=           0
         NMat0=    1 NMatS0=  52003 NMatT0=    0 NMatD0=    1 NMtDS0=    0 NMtDT0=    0
 Symmetry not used in FoFCou.
 Two-electron integral symmetry not used.
          MDV=    1572864000 using IRadAn=       1.
          Solving linear equations simultaneously, MaxMat=       0.
          There are    36 degrees of freedom in the 1st order CPHF.  IDoFFX=6 NUNeed=     3.
     33 vectors produced by pass  0 Test12= 1.12D-14 2.78D-09 XBig12= 7.38D+00 8.83D-01.
 AX will form    33 AO Fock derivatives at one time.
     33 vectors produced by pass  1 Test12= 1.12D-14 2.78D-09 XBig12= 1.48D-01 6.72D-02.
     33 vectors produced by pass  2 Test12= 1.12D-14 2.78D-09 XBig12= 1.32D-03 5.34D-03.
     33 vectors produced by pass  3 Test12= 1.12D-14 2.78D-09 XBig12= 1.19D-05 4.98D-04.
     33 vectors produced by pass  4 Test12= 1.12D-14 2.78D-09 XBig12= 7.65D-08 4.49D-05.
     33 vectors produced by pass  5 Test12= 1.12D-14 2.78D-09 XBig12= 4.07D-10 2.55D-06.
     23 vectors produced by pass  6 Test12= 1.12D-14 2.78D-09 XBig12= 2.04D-12 1.63D-07.
      3 vectors produced by pass  7 Test12= 1.12D-14 2.78D-09 XBig12= 9.84D-15 1.23D-08.
 InvSVY:  IOpt=1 It=  1 EMax= 3.11D-15
 Solved reduced A of dimension   224 with    36 vectors.
 FullF1:  Do perturbations      1 to       3.
 Isotropic polarizability for W=    0.000000       30.99 Bohr**3.
 End of Minotr F.D. properties file   721 does not exist.
 End of Minotr F.D. properties file   722 does not exist.
 End of Minotr F.D. properties file   788 does not exist.
 Leave Link 1002 at Wed Jun 19 13:25:57 2024, MaxMem=  1572864000 cpu:             277.3 elap:              34.8
 (Enter /software/sse/easybuild/prefix/software/Gaussian/16.C.01-avx2-nsc1/g16/l601.exe)
 Copying SCF densities to generalized density rwf, IOpCl= 0 IROHF=0.
 SCF density gives NOpUse=  1 NOpAll=  1.

 **********************************************************************

            Population analysis using the SCF Density.

 **********************************************************************

 Orbital symmetries:
 BldTbl:  Degeneracy threshold= 1.00D-02
       Occupied  (A) (A) (A) (A) (A) (A) (A) (A) (A) (A) (A) (A)
                 (A)
       Virtual   (A) (A) (A) (A) (A) (A) (A) (A) (A) (A) (A) (A)
                 (A) (A) (A) (A) (A) (A) (A) (A) (A) (A) (A) (A)
                 (A) (A) (A) (A) (A) (A) (A) (A) (A) (A) (A) (A)
                 (A) (A) (A) (A) (A) (A) (A) (A) (A) (A) (A) (A)
                 (A) (A) (A) (A) (A) (A) (A) (A) (A) (A) (A) (A)
                 (A) (A) (A) (A) (A) (A) (A) (A) (A) (A) (A) (A)
                 (A) (A) (A) (A) (A) (A) (A) (A) (A) (A) (A) (A)
                 (A) (A) (A) (A) (A) (A) (A) (A) (A) (A) (A) (A)
                 (A) (A) (A) (A) (A) (A) (A) (A) (A) (A) (A) (A)
                 (A) (A) (A) (A) (A) (A) (A) (A) (A) (A) (A) (A)
                 (A) (A) (A) (A) (A) (A) (A) (A) (A) (A) (A) (A)
                 (A) (A) (A) (A) (A) (A) (A) (A) (A) (A) (A) (A)
                 (A) (A) (A) (A) (A) (A) (A) (A) (A) (A) (A) (A)
                 (A) (A) (A) (A) (A) (A) (A) (A) (A) (A) (A) (A)
                 (A) (A) (A) (A) (A) (A) (A) (A) (A) (A) (A) (A)
                 (A) (A) (A) (A) (A) (A) (A) (A) (A) (A) (A) (A)
                 (A) (A) (A) (A) (A) (A) (A) (A) (A) (A) (A) (A)
                 (A) (A) (A) (A) (A) (A) (A) (A) (A) (A) (A) (A)
                 (A) (A) (A) (A) (A) (A) (A) (A) (A) (A) (A) (A)
                 (A) (A) (A) (A) (A) (A) (A) (A) (A) (A) (A) (A)
                 (A) (A) (A) (A) (A) (A) (A) (A) (A) (A) (A) (A)
                 (A) (A) (A) (A) (A) (A) (A) (A) (A) (A) (A) (A)
                 (A) (A) (A) (A) (A) (A) (A) (A) (A) (A) (A) (A)
                 (A) (A) (A) (A) (A) (A) (A) (A) (A) (A) (A) (A)
                 (A) (A) (A) (A) (A) (A) (A) (A) (A) (A) (A) (A)
                 (A) (A) (A) (A) (A) (A) (A) (A) (A)
 The electronic state is 1-A.
 Alpha  occ. eigenvalues --  -15.89699 -11.48806 -11.40490  -1.51020  -1.22450
 Alpha  occ. eigenvalues --   -1.06159  -0.97252  -0.96182  -0.85135  -0.80601
 Alpha  occ. eigenvalues --   -0.73127  -0.71550  -0.69843
 Alpha virt. eigenvalues --   -0.11895  -0.08306  -0.08292  -0.07565  -0.04835
 Alpha virt. eigenvalues --   -0.04636  -0.04212  -0.03940  -0.03427  -0.02383
 Alpha virt. eigenvalues --    0.00203   0.00467   0.00777   0.01033   0.02282
 Alpha virt. eigenvalues --    0.02329   0.03507   0.03748   0.04285   0.04838
 Alpha virt. eigenvalues --    0.06685   0.07814   0.07879   0.09139   0.09755
 Alpha virt. eigenvalues --    0.11011   0.13263   0.14149   0.15424   0.18077
 Alpha virt. eigenvalues --    0.18590   0.19460   0.19485   0.20299   0.20481
 Alpha virt. eigenvalues --    0.20993   0.21607   0.22073   0.22943   0.23118
 Alpha virt. eigenvalues --    0.23651   0.25232   0.25420   0.25518   0.25609
 Alpha virt. eigenvalues --    0.27461   0.27871   0.28731   0.29232   0.29482
 Alpha virt. eigenvalues --    0.30274   0.30935   0.32829   0.33586   0.35843
 Alpha virt. eigenvalues --    0.36158   0.36979   0.38126   0.38442   0.40372
 Alpha virt. eigenvalues --    0.41134   0.41449   0.42038   0.42724   0.43159
 Alpha virt. eigenvalues --    0.47037   0.48408   0.53350   0.54131   0.58300
 Alpha virt. eigenvalues --    0.59599   0.60975   0.63599   0.63851   0.64438
 Alpha virt. eigenvalues --    0.65206   0.65896   0.68089   0.69776   0.70513
 Alpha virt. eigenvalues --    0.70736   0.72400   0.73039   0.73324   0.74925
 Alpha virt. eigenvalues --    0.75526   0.76559   0.78005   0.78491   0.78861
 Alpha virt. eigenvalues --    0.79243   0.82069   0.82785   0.84179   0.84731
 Alpha virt. eigenvalues --    0.85927   0.87716   0.88253   0.88680   0.90113
 Alpha virt. eigenvalues --    0.92812   0.93310   0.95386   0.96301   0.96371
 Alpha virt. eigenvalues --    0.98659   1.00523   1.03016   1.03606   1.04068
 Alpha virt. eigenvalues --    1.05819   1.05960   1.06602   1.06692   1.08798
 Alpha virt. eigenvalues --    1.10569   1.12462   1.12471   1.14532   1.14951
 Alpha virt. eigenvalues --    1.18147   1.18286   1.22098   1.23655   1.25806
 Alpha virt. eigenvalues --    1.27750   1.28276   1.31302   1.31898   1.32646
 Alpha virt. eigenvalues --    1.36314   1.37951   1.39510   1.40574   1.42344
 Alpha virt. eigenvalues --    1.44733   1.44783   1.48878   1.50212   1.50503
 Alpha virt. eigenvalues --    1.52184   1.53042   1.54284   1.54487   1.55727
 Alpha virt. eigenvalues --    1.58210   1.60391   1.61364   1.64364   1.65156
 Alpha virt. eigenvalues --    1.67576   1.69533   1.73309   1.74524   1.74680
 Alpha virt. eigenvalues --    1.76907   1.77074   1.78238   1.79728   1.84132
 Alpha virt. eigenvalues --    1.84382   1.84494   1.88237   1.91221   1.94338
 Alpha virt. eigenvalues --    1.96735   2.00167   2.04477   2.06135   2.06189
 Alpha virt. eigenvalues --    2.07268   2.08002   2.11701   2.17372   2.18057
 Alpha virt. eigenvalues --    2.20621   2.21836   2.23490   2.24483   2.27719
 Alpha virt. eigenvalues --    2.33561   2.34048   2.36966   2.47027   2.47113
 Alpha virt. eigenvalues --    2.47960   2.49740   2.67467   2.81435   3.00574
 Alpha virt. eigenvalues --    3.11369   3.19063   3.21752   3.22569   3.26721
 Alpha virt. eigenvalues --    3.35396   3.39638   3.42082   3.43109   3.45395
 Alpha virt. eigenvalues --    3.45477   3.49159   3.52789   3.53572   3.56149
 Alpha virt. eigenvalues --    3.59349   3.60971   3.61824   3.63150   3.65754
 Alpha virt. eigenvalues --    3.73800   3.73888   3.75017   3.77119   3.78848
 Alpha virt. eigenvalues --    3.79689   3.83216   3.85558   3.88857   3.90941
 Alpha virt. eigenvalues --    3.91493   3.93376   3.93929   3.97548   3.99421
 Alpha virt. eigenvalues --    4.03665   4.04310   4.06486   4.07537   4.11088
 Alpha virt. eigenvalues --    4.12194   4.19248   4.24347   4.24727   4.29396
 Alpha virt. eigenvalues --    4.30504   4.31005   4.34376   4.37358   4.38065
 Alpha virt. eigenvalues --    4.39419   4.43236   4.46336   4.48161   4.50001
 Alpha virt. eigenvalues --    4.50979   4.56457   4.58975   4.61298   4.62725
 Alpha virt. eigenvalues --    4.63356   4.68317   4.68337   4.69965   4.71943
 Alpha virt. eigenvalues --    4.76678   4.77281   4.83522   4.84252   4.84824
 Alpha virt. eigenvalues --    4.88189   4.92095   4.92448   4.97693   4.98604
 Alpha virt. eigenvalues --    5.02608   5.02748   5.05827   5.08131   5.13046
 Alpha virt. eigenvalues --    5.20145   5.20677   5.27761   5.29053   5.33723
 Alpha virt. eigenvalues --    5.36376   5.38964   5.43080   5.52540   5.56040
 Alpha virt. eigenvalues --    5.58163   5.58946   5.60771   5.69668   5.73812
 Alpha virt. eigenvalues --    5.79157   5.81862   5.88693   5.90228   5.93650
 Alpha virt. eigenvalues --    5.99856   6.03238   6.11295   6.13675   6.14078
 Alpha virt. eigenvalues --    6.22082   6.35444   6.53076   6.53244   6.62264
 Alpha virt. eigenvalues --    6.63973   6.70645   6.87057   6.89138   7.55477
 Alpha virt. eigenvalues --    7.55962  17.27950  17.78350  18.92714
          Condensed to atoms (all electrons):
               1          2          3          4          5          6
     1  N    5.514822   0.169469   0.447010   0.394927   0.394928   0.009341
     2  C    0.169469   5.264567  -0.032290  -0.001879  -0.001881   0.374849
     3  H    0.447010  -0.032290   0.505620  -0.030135  -0.030136   0.001101
     4  H    0.394927  -0.001879  -0.030135   0.503879  -0.024031   0.008217
     5  H    0.394928  -0.001881  -0.030136  -0.024031   0.503882  -0.006000
     6  H    0.009341   0.374849   0.001101   0.008217  -0.006000   0.248619
     7  H    0.009339   0.374855   0.001100  -0.006001   0.008218   0.010057
     8  C   -0.021225   0.159107  -0.000262   0.000873   0.000873  -0.003533
     9  H   -0.003627   0.000229  -0.000201  -0.004010   0.002597   0.000192
    10  H   -0.001114   0.007952   0.000079  -0.000398  -0.000399   0.002146
    11  H   -0.003628   0.000229  -0.000201   0.002597  -0.004011  -0.000036
               7          8          9         10         11
     1  N    0.009339  -0.021225  -0.003627  -0.001114  -0.003628
     2  C    0.374855   0.159107   0.000229   0.007952   0.000229
     3  H    0.001100  -0.000262  -0.000201   0.000079  -0.000201
     4  H   -0.006001   0.000873  -0.004010  -0.000398   0.002597
     5  H    0.008218   0.000873   0.002597  -0.000399  -0.004011
     6  H    0.010057  -0.003533   0.000192   0.002146  -0.000036
     7  H    0.248624  -0.003532  -0.000036   0.002146   0.000191
     8  C   -0.003532   5.598564   0.401162   0.370969   0.401163
     9  H   -0.000036   0.401162   0.268100   0.016521   0.010781
    10  H    0.002146   0.370969   0.016521   0.232877   0.016522
    11  H    0.000191   0.401163   0.010781   0.016522   0.268101
 Mulliken charges:
               1
     1  N    0.089758
     2  C   -0.315207
     3  H    0.138315
     4  H    0.155960
     5  H    0.155961
     6  H    0.355048
     7  H    0.355039
     8  C   -0.904161
     9  H    0.308294
    10  H    0.352700
    11  H    0.308292
 Sum of Mulliken charges =   1.00000
 Mulliken charges with hydrogens summed into heavy atoms:
               1
     1  N    0.539995
     2  C    0.394880
     8  C    0.065125
 APT charges:
               1
     1  N   -0.343611
     2  C    0.429160
     3  H    0.262117
     4  H    0.256526
     5  H    0.256526
     6  H    0.013801
     7  H    0.013799
     8  C    0.055805
     9  H    0.006031
    10  H    0.043817
    11  H    0.006029
 Sum of APT charges =   1.00000
 APT charges with hydrogens summed into heavy atoms:
               1
     1  N    0.431558
     2  C    0.456761
     8  C    0.111681
 DipInt: DoE/N= T F RetVal/Mat= T F Init=T NMatP=  1 IDeriv=0 Min/MaxMlt=  0  4
 Entering OneElI...
 OneElI was handed  1572522473 working-precision words.
 Multipole integrals L=0 to 4 MinM= 0 MaxM= 0.
 Requested accuracy = 0.1000D-12
 ShPair: Thresh= 1.00D-13 NBox=     0 BxSize= 0.00D+00 RnKept= 8.01D+00
         NSMCal=                 6555 NSMKep=                6548
 PrmmSu-InSpLW:  IPartL=    0 NPrtUS=    1 NPrtUL=    1 DoSpLW=F IThBeg=    0 IThEnd=    0 NThAct=    1.
 PrSmSu:  IncTry=   512 NBBP=           6548 NTPThr=   100 NPartT=    1 Incr=          65 LDynOK=F GPUOK=F.
 PrsmSu:  NPrtUS=   1 ThrOK=F IAlg=2 LenDen=           0 ISkipM=0 DoSpLW=F IThBeg=    0 IThEnd=    0.
 Prism:   IPart=     0 DynPar=F LinDyn=F Incr=          65.
 PRISM was handed  1572110320 working-precision words and  6548 shell-pairs
 IPart=  0 NShTot=        6548 NBatch=          75 AvBLen=        87.3
 PrsmSu-ThDecC:  IPartSL=    0    0 NPrtUSL=    1    1 IThBeg=    0 IThEnd=    0 CPU=   -1 GPU=   -1 NThAct=    1.
 PrSmSu:  NxtVal=             66.
 Electronic moments (au):
        -26.00000000         -1.50557970         -0.23857741         -0.00000169
       -135.51308045        -45.64000437        -28.36388582          1.05168560
         -0.00001503          0.00000103        -47.18580613        -17.45311571
         -0.00059894        -10.14513232         53.01536823         -0.00003969
         -9.08415647          1.44742352          0.00035152          0.00044269
      -1406.19896217       -244.39393364       -124.82328110         12.84206640
          0.00186299         15.86591171         -0.00171663         -0.00265972
          0.00079722       -183.19349892       -144.14344525        -86.46678258
          0.00219383          0.00114539         12.15340838
 Electronic spatial extent (au):  <R**2>=            209.5170
 DipInt: DoE/N= F T RetVal/Mat= T F Init=T NMatP=  1 IDeriv=0 Min/MaxMlt=  0  4
 Nuclear    moments (au):
         27.00000000         -0.00000000          0.00000000         -0.00000000
        129.04298283         33.82022908         16.15479342          0.00000000
          0.00000000          0.00000000         23.02623699         15.74343760
          0.00068456          4.29851480        -53.88998547          0.00001613
          2.97011712         -4.32367026         -0.00037512         -0.00055104
       1072.05855536        101.90741467         43.69962777         -8.66786039
         -0.00280046         -4.63869499          0.00217246          0.00344604
         -0.00098916         98.22691523         64.03781049         59.80698826
         -0.00274267         -0.00158604         -6.35031364
 Total      moments (au):
          1.00000000         -1.50557970         -0.23857741         -0.00000169
         -6.47009762        -11.81977529        -12.20909240          1.05168560
         -0.00001503          0.00000103        -24.15956914         -1.70967811
          0.00008563         -5.84661752         -0.87461725         -0.00002356
         -6.11403935         -2.87624674         -0.00002360         -0.00010834
       -334.14040680       -142.48651898        -81.12365333          4.17420601
         -0.00093746         11.22721672          0.00045584          0.00078632
         -0.00019194        -84.96658369        -80.10563477        -26.65979432
         -0.00054885         -0.00044065          5.80309474
 Charge=              1.0000 electrons
 Dipole moment (field-independent basis, Debye):
    X=             -3.8268    Y=             -0.6064    Z=             -0.0000  Tot=              3.8745
 Quadrupole moment (field-independent basis, Debye-Ang):
   XX=             -8.7025   YY=            -15.8980   ZZ=            -16.4216
   XY=              1.4146   XZ=             -0.0000   YZ=              0.0000
 Traceless Quadrupole moment (field-independent basis, Debye-Ang):
   XX=              4.9715   YY=             -2.2240   ZZ=             -2.7476
   XY=              1.4146   XZ=             -0.0000   YZ=              0.0000
 Octapole moment (field-independent basis, Debye-Ang**2):
  XXX=            -17.1959  YYY=             -1.2169  ZZZ=              0.0001  XYY=             -4.1614
  XXY=             -0.6225  XXZ=             -0.0000  XZZ=             -4.3517  YZZ=             -2.0472
  YYZ=             -0.0000  XYZ=             -0.0001
 Hexadecapole moment (field-independent basis, Debye-Ang**3):
 XXXX=           -125.8533 YYYY=            -53.6673 ZZZZ=            -30.5551 XXXY=              1.5722
 XXXZ=             -0.0004 YYYX=              4.2287 YYYZ=              0.0002 ZZZX=              0.0003
 ZZZY=             -0.0001 XXYY=            -32.0025 XXZZ=            -30.1716 YYZZ=            -10.0414
 XXYZ=             -0.0002 YYXZ=             -0.0002 ZZXY=              2.1857
 N-N= 8.960790907030D+01 E-N=-4.863344638337D+02  KE= 1.344162306968D+02
 SetAtRh:  ITypeU=  23 NETotI=      -1 ICharg=  0 NETot=      27.
 StAtR1:  I=    1 I1=    1 IA=  7 C=   7.0 OKShel=TTT
                                                  SSP
                                                  223
 StAtR1:  I=    2 I1=    2 IA=  6 C=   6.0 OKShel=TTT
                                                  SSP
                                                  222
 StAtR1:  I=    3 I1=    3 IA=  1 C=   1.0 OKShel=T
                                                  S
                                                  1
 StAtR1:  I=    4 I1=    4 IA=  1 C=   1.0 OKShel=T
                                                  S
                                                  1
 StAtR1:  I=    5 I1=    5 IA=  1 C=   1.0 OKShel=T
                                                  S
                                                  1
 StAtR1:  I=    6 I1=    6 IA=  1 C=   1.0 OKShel=T
                                                  S
                                                  1
 StAtR1:  I=    7 I1=    7 IA=  1 C=   1.0 OKShel=T
                                                  S
                                                  1
 StAtR1:  I=    8 I1=    8 IA=  6 C=   6.0 OKShel=TTT
                                                  SSP
                                                  222
 StAtR1:  I=    9 I1=    9 IA=  1 C=   1.0 OKShel=T
                                                  S
                                                  1
 StAtR1:  I=   10 I1=   10 IA=  1 C=   1.0 OKShel=T
                                                  S
                                                  1
 StAtR1:  I=   11 I1=   11 IA=  1 C=   1.0 OKShel=T
                                                  S
                                                  1
          I=    1 IA=  7 I1=    1 NAtG=22 NE=   7.000 C=   7.000 Err= 6.08D-13
          I=    2 IA=  6 I1=    2 NAtG=23 NE=   6.000 C=   6.000 Err= 1.75D-11
          I=    3 IA=  1 I1=    3 NAtG=20 NE=   1.000 C=   1.000 Err= 2.80D-12
          I=    4 IA=  1 I1=    4 NAtG=20 NE=   1.000 C=   1.000 Err= 2.80D-12
          I=    5 IA=  1 I1=    5 NAtG=20 NE=   1.000 C=   1.000 Err= 2.80D-12
          I=    6 IA=  1 I1=    6 NAtG=20 NE=   1.000 C=   1.000 Err= 2.80D-12
          I=    7 IA=  1 I1=    7 NAtG=20 NE=   1.000 C=   1.000 Err= 2.80D-12
          I=    8 IA=  6 I1=    8 NAtG=23 NE=   6.000 C=   6.000 Err= 1.75D-11
          I=    9 IA=  1 I1=    9 NAtG=20 NE=   1.000 C=   1.000 Err= 2.80D-12
          I=   10 IA=  1 I1=   10 NAtG=20 NE=   1.000 C=   1.000 Err= 2.80D-12
          I=   11 IA=  1 I1=   11 NAtG=20 NE=   1.000 C=   1.000 Err= 2.80D-12
 Pruned (  99, 590) grid will be used in numerical quadrature.
 IPart=  0 IRanGd=          0 ScrnBf=T ScrnGd=T RCrit=4.00D+00 DoMicB=T.
 Pruned (  99, 590) grid will be used in numerical quadrature.
 CutRad = 1000.00    CtRdIn =    0.00    XCrit =  15.00   ICut = 0
 IPart=  2 IRanGd=          0 ScrnBf=T ScrnGd=T RCrit=4.00D+00 DoMicB=T.
 CutRad = 1000.00    CtRdIn =    0.00    XCrit =  15.00   ICut = 0
 Pruned (  99, 590) grid will be used in numerical quadrature.
 IPart=  4 IRanGd=          0 ScrnBf=T ScrnGd=T RCrit=4.00D+00 DoMicB=T.
 CutRad = 1000.00    CtRdIn =    0.00    XCrit =  15.00   ICut = 0
 Pruned (  99, 590) grid will be used in numerical quadrature.
 Pruned (  99, 590) grid will be used in numerical quadrature.
 IPart=  7 IRanGd=          0 ScrnBf=T ScrnGd=T RCrit=4.00D+00 DoMicB=T.
 CutRad = 1000.00    CtRdIn =    0.00    XCrit =  15.00   ICut = 0
 IPart=  0 Atom number   1 atomic number  7 has       23416 grid points.
 Pruned (  99, 590) grid will be used in numerical quadrature.
 IPart=  6 IRanGd=          0 ScrnBf=T ScrnGd=T RCrit=4.00D+00 DoMicB=T.
 CutRad = 1000.00    CtRdIn =    0.00    XCrit =  15.00   ICut = 0
 Pruned (  99, 590) grid will be used in numerical quadrature.
 IPart=  1 IRanGd=          0 ScrnBf=T ScrnGd=T RCrit=4.00D+00 DoMicB=T.
 CutRad = 1000.00    CtRdIn =    0.00    XCrit =  15.00   ICut = 0
 IPart=  0 Atom   1 batch    1 overlaps   11 atoms,   111 shells and    11 DB shells.   NGrid=      2408
 Pruned (  99, 590) grid will be used in numerical quadrature.
 Pruned (  99, 590) grid will be used in numerical quadrature.
 IPart=  3 IRanGd=          0 ScrnBf=T ScrnGd=T RCrit=4.00D+00 DoMicB=T.
 CutRad = 1000.00    CtRdIn =    0.00    XCrit =  15.00   ICut = 0
 Pruned (  99, 590) grid will be used in numerical quadrature.
 Pruned (  99, 590) grid will be used in numerical quadrature.
 IPart=  2 Atom number   1 atomic number  7 has       23416 grid points.
 IPart=  4 Atom number   1 atomic number  7 has       23416 grid points.
 IPart=  6 Atom number   1 atomic number  7 has       23416 grid points.
 Symmetry reduced    86 angular points to    86 for atom    1.
 IPart=  2 Atom   1 batch    2 overlaps   11 atoms,   111 shells and    11 DB shells.   NGrid=      2522
 IPart=  6 Atom   1 batch    5 overlaps   11 atoms,   113 shells and    11 DB shells.   NGrid=      1180
 Pruned (  99, 590) grid will be used in numerical quadrature.
 IPart=  4 Atom   1 batch    3 overlaps   11 atoms,   112 shells and    11 DB shells.   NGrid=      2114
 Symmetry reduced   590 angular points to   590 for atom    1.
 IPart=  7 Atom number   1 atomic number  7 has       23416 grid points.
 Symmetry reduced   302 angular points to   302 for atom    1.
 Symmetry reduced   194 angular points to   194 for atom    1.
 IPart=  7 Atom   1 batch    4 overlaps   11 atoms,   113 shells and    11 DB shells.   NGrid=      1180
 Symmetry reduced   590 angular points to   590 for atom    1.
 Pruned (  99, 590) grid will be used in numerical quadrature.
 IPart=  1 Atom number   1 atomic number  7 has       23416 grid points.
 IPart=  1 Atom   1 batch    6 overlaps   11 atoms,   114 shells and    11 DB shells.   NGrid=      1180
 Symmetry reduced   590 angular points to   590 for atom    1.
 Pruned (  99, 590) grid will be used in numerical quadrature.
 IPart=  5 IRanGd=          0 ScrnBf=T ScrnGd=T RCrit=4.00D+00 DoMicB=T.
 CutRad = 1000.00    CtRdIn =    0.00    XCrit =  15.00   ICut = 0
 Pruned (  99, 590) grid will be used in numerical quadrature.
 IPart=  3 Atom number   1 atomic number  7 has       23416 grid points.
 IPart=  3 Atom   1 batch    7 overlaps   11 atoms,   114 shells and    11 DB shells.   NGrid=      1180
 Symmetry reduced   590 angular points to   590 for atom    1.
 Pruned (  99, 590) grid will be used in numerical quadrature.
 IPart=  5 Atom number   1 atomic number  7 has       23416 grid points.
 IPart=  5 Atom   1 batch    8 overlaps   11 atoms,   114 shells and    11 DB shells.   NGrid=      1180
 Symmetry reduced   590 angular points to   590 for atom    1.
 IPart=  7 Atom   1 batch    9 overlaps   11 atoms,   114 shells and    11 DB shells.   NGrid=      1180
 IPart=  3 Atom   1 batch   10 overlaps   11 atoms,   114 shells and    11 DB shells.   NGrid=      1180
 IPart=  6 Atom   1 batch   11 overlaps   11 atoms,   114 shells and    11 DB shells.   NGrid=      1180
 IPart=  5 Atom   1 batch   12 overlaps   11 atoms,   113 shells and    11 DB shells.   NGrid=       590
 IPart=  1 Atom   1 batch   13 overlaps   11 atoms,   113 shells and    11 DB shells.   NGrid=       604
 Symmetry reduced   302 angular points to   302 for atom    1.
 IPart=  5 Atom   1 batch   14 overlaps   11 atoms,   113 shells and    11 DB shells.   NGrid=       604
 Symmetry reduced   302 angular points to   302 for atom    1.
 IPart=  1 Atom   1 batch   15 overlaps   11 atoms,   111 shells and    11 DB shells.   NGrid=       604
 IPart=  0 Atom   1 batch   16 overlaps   11 atoms,   108 shells and    11 DB shells.   NGrid=       604
 Symmetry reduced   302 angular points to   302 for atom    1.
 IPart=  4 Atom   1 batch   17 overlaps   11 atoms,   101 shells and    11 DB shells.   NGrid=       604
 IPart=  6 Atom   1 batch   18 overlaps   11 atoms,    88 shells and    11 DB shells.   NGrid=       604
 Symmetry reduced   302 angular points to   302 for atom    1.
 IPart=  1 Atom   1 batch   19 overlaps   11 atoms,    66 shells and    11 DB shells.   NGrid=       604
 IPart=  7 Atom   1 batch   20 overlaps   11 atoms,    44 shells and    10 DB shells.   NGrid=       604
 Symmetry reduced   302 angular points to   302 for atom    1.
 IPart=  3 Atom   1 batch   21 overlaps   11 atoms,    27 shells and     6 DB shells.   NGrid=       604
 Symmetry reduced   302 angular points to   302 for atom    1.
 IPart=  5 Atom   1 batch   22 overlaps   11 atoms,    12 shells and     0 DB shells.   NGrid=       604
 IPart=  2 Atom   1 batch   23 overlaps   11 atoms,     5 shells and     0 DB shells.   NGrid=       302
 Symmetry reduced   302 angular points to   302 for atom    1.
 Pruned (  99, 590) grid will be used in numerical quadrature.
 IPart=  3 Atom number   2 atomic number  6 has       23114 grid points.
 IPart=  3 Atom   2 batch    1 overlaps   11 atoms,   114 shells and    11 DB shells.   NGrid=      2408
 Pruned (  99, 590) grid will be used in numerical quadrature.
 Pruned (  99, 590) grid will be used in numerical quadrature.
 IPart=  7 Atom number   2 atomic number  6 has       23114 grid points.
 IPart=  2 Atom number   2 atomic number  6 has       23114 grid points.
 Symmetry reduced    86 angular points to    86 for atom    2.
 IPart=  7 Atom   2 batch    2 overlaps   11 atoms,   114 shells and    11 DB shells.   NGrid=      2522
 IPart=  2 Atom   2 batch    3 overlaps   11 atoms,   114 shells and    11 DB shells.   NGrid=      2114
 Symmetry reduced   194 angular points to   194 for atom    2.
 Pruned (  99, 590) grid will be used in numerical quadrature.
 Symmetry reduced   302 angular points to   302 for atom    2.
 IPart=  5 Atom number   2 atomic number  6 has       23114 grid points.
 IPart=  5 Atom   2 batch    4 overlaps   11 atoms,   114 shells and    11 DB shells.   NGrid=      1180
 Symmetry reduced   590 angular points to   590 for atom    2.
 Pruned (  99, 590) grid will be used in numerical quadrature.
 IPart=  4 Atom number   2 atomic number  6 has       23114 grid points.
 IPart=  4 Atom   2 batch    5 overlaps   11 atoms,   114 shells and    11 DB shells.   NGrid=      1180
 Symmetry reduced   590 angular points to   590 for atom    2.
 Pruned (  99, 590) grid will be used in numerical quadrature.
 IPart=  0 Atom number   2 atomic number  6 has       23114 grid points.
 IPart=  0 Atom   2 batch    6 overlaps   11 atoms,   114 shells and    11 DB shells.   NGrid=      1180
 Symmetry reduced   590 angular points to   590 for atom    2.
 Pruned (  99, 590) grid will be used in numerical quadrature.
 IPart=  1 Atom number   2 atomic number  6 has       23114 grid points.
 IPart=  1 Atom   2 batch    7 overlaps   11 atoms,   114 shells and    11 DB shells.   NGrid=      1180
 Symmetry reduced   590 angular points to   590 for atom    2.
 Pruned (  99, 590) grid will be used in numerical quadrature.
 IPart=  6 Atom number   2 atomic number  6 has       23114 grid points.
 IPart=  6 Atom   2 batch    8 overlaps   11 atoms,   114 shells and    11 DB shells.   NGrid=      1180
 Symmetry reduced   590 angular points to   590 for atom    2.
 IPart=  5 Atom   2 batch    9 overlaps   11 atoms,   114 shells and    11 DB shells.   NGrid=      1180
 IPart=  4 Atom   2 batch   10 overlaps   11 atoms,   114 shells and    11 DB shells.   NGrid=      1180
 IPart=  0 Atom   2 batch   11 overlaps   11 atoms,   113 shells and    11 DB shells.   NGrid=      1180
 IPart=  1 Atom   2 batch   12 overlaps   11 atoms,   113 shells and    11 DB shells.   NGrid=       590
 IPart=  6 Atom   2 batch   13 overlaps   11 atoms,   113 shells and    11 DB shells.   NGrid=       604
 Symmetry reduced   302 angular points to   302 for atom    2.
 IPart=  6 Atom   2 batch   14 overlaps   11 atoms,   113 shells and    11 DB shells.   NGrid=       604
 IPart=  1 Atom   2 batch   15 overlaps   11 atoms,   108 shells and    11 DB shells.   NGrid=       604
 Symmetry reduced   302 angular points to   302 for atom    2.
 IPart=  2 Atom   2 batch   16 overlaps   11 atoms,   102 shells and    11 DB shells.   NGrid=       604
 IPart=  1 Atom   2 batch   17 overlaps   11 atoms,    84 shells and    11 DB shells.   NGrid=       604
 IPart=  0 Atom   2 batch   18 overlaps   11 atoms,    68 shells and    11 DB shells.   NGrid=       604
 Symmetry reduced   302 angular points to   302 for atom    2.
 IPart=  6 Atom   2 batch   19 overlaps   11 atoms,    46 shells and    11 DB shells.   NGrid=       604
 IPart=  1 Atom   2 batch   20 overlaps   11 atoms,    33 shells and     7 DB shells.   NGrid=       604
 IPart=  6 Atom   2 batch   21 overlaps   11 atoms,    14 shells and     0 DB shells.   NGrid=       604
 IPart=  3 Atom   2 batch   22 overlaps   11 atoms,     8 shells and     0 DB shells.   NGrid=       604
 Pruned (  99, 590) grid will be used in numerical quadrature.
 Symmetry reduced   302 angular points to   302 for atom    2.
 IPart=  4 Atom number   3 atomic number  1 has       23466 grid points.
 IPart=  4 Atom   3 batch    1 overlaps   11 atoms,   102 shells and    11 DB shells.   NGrid=      2838
 Symmetry reduced    86 angular points to    86 for atom    3.
 Pruned (  99, 590) grid will be used in numerical quadrature.
 IPart=  1 Atom number   3 atomic number  1 has       23466 grid points.
 IPart=  1 Atom   3 batch    2 overlaps   11 atoms,   102 shells and    11 DB shells.   NGrid=      1552
 Symmetry reduced   194 angular points to   194 for atom    3.
 Pruned (  99, 590) grid will be used in numerical quadrature.
 IPart=  6 Atom number   3 atomic number  1 has       23466 grid points.
 IPart=  6 Atom   3 batch    3 overlaps   11 atoms,   106 shells and    11 DB shells.   NGrid=      2416
 Symmetry reduced   302 angular points to   302 for atom    3.
 Pruned (  99, 590) grid will be used in numerical quadrature.
 Pruned (  99, 590) grid will be used in numerical quadrature.
 IPart=  0 Atom number   3 atomic number  1 has       23466 grid points.
 IPart=  5 Atom number   3 atomic number  1 has       23466 grid points.
 IPart=  0 Atom   3 batch    5 overlaps   11 atoms,   108 shells and    11 DB shells.   NGrid=      1180
 IPart=  5 Atom   3 batch    4 overlaps   11 atoms,   106 shells and    11 DB shells.   NGrid=      1180
 Symmetry reduced   590 angular points to   590 for atom    3.
 Symmetry reduced   590 angular points to   590 for atom    3.
 Pruned (  99, 590) grid will be used in numerical quadrature.
 IPart=  3 Atom number   3 atomic number  1 has       23466 grid points.
 IPart=  3 Atom   3 batch    6 overlaps   11 atoms,   108 shells and    11 DB shells.   NGrid=      1180
 Symmetry reduced   590 angular points to   590 for atom    3.
 Pruned (  99, 590) grid will be used in numerical quadrature.
 IPart=  2 Atom number   3 atomic number  1 has       23466 grid points.
 IPart=  2 Atom   3 batch    7 overlaps   11 atoms,   111 shells and    11 DB shells.   NGrid=      1180
 Symmetry reduced   590 angular points to   590 for atom    3.
 Pruned (  99, 590) grid will be used in numerical quadrature.
 IPart=  7 Atom number   3 atomic number  1 has       23466 grid points.
 IPart=  7 Atom   3 batch    8 overlaps   11 atoms,   111 shells and    11 DB shells.   NGrid=      1180
 Symmetry reduced   590 angular points to   590 for atom    3.
 IPart=  5 Atom   3 batch    9 overlaps   11 atoms,   112 shells and    11 DB shells.   NGrid=      1180
 IPart=  0 Atom   3 batch   10 overlaps   11 atoms,   113 shells and    11 DB shells.   NGrid=      1180
 IPart=  3 Atom   3 batch   11 overlaps   11 atoms,   114 shells and    11 DB shells.   NGrid=      1180
 IPart=  2 Atom   3 batch   12 overlaps   11 atoms,   114 shells and    11 DB shells.   NGrid=      1180
 IPart=  1 Atom   3 batch   13 overlaps   11 atoms,   114 shells and    11 DB shells.   NGrid=       604
 Symmetry reduced   302 angular points to   302 for atom    3.
 IPart=  7 Atom   3 batch   14 overlaps   11 atoms,   113 shells and    11 DB shells.   NGrid=       604
 Symmetry reduced   302 angular points to   302 for atom    3.
 IPart=  7 Atom   3 batch   15 overlaps   11 atoms,   110 shells and    11 DB shells.   NGrid=       604
 IPart=  1 Atom   3 batch   16 overlaps   11 atoms,   106 shells and    11 DB shells.   NGrid=       604
 IPart=  6 Atom   3 batch   17 overlaps   11 atoms,    97 shells and    11 DB shells.   NGrid=       604
 IPart=  3 Atom   3 batch   18 overlaps   11 atoms,    82 shells and    11 DB shells.   NGrid=       604
 Symmetry reduced   302 angular points to   302 for atom    3.
 IPart=  5 Atom   3 batch   19 overlaps   11 atoms,    55 shells and    10 DB shells.   NGrid=       604
 Symmetry reduced   302 angular points to   302 for atom    3.
 IPart=  4 Atom   3 batch   20 overlaps   11 atoms,    34 shells and     7 DB shells.   NGrid=       604
 Symmetry reduced   302 angular points to   302 for atom    3.
 IPart=  0 Atom   3 batch   21 overlaps   11 atoms,    13 shells and     0 DB shells.   NGrid=       604
 Symmetry reduced   302 angular points to   302 for atom    3.
 IPart=  1 Atom   3 batch   22 overlaps   11 atoms,     7 shells and     0 DB shells.   NGrid=       604
 Pruned (  99, 590) grid will be used in numerical quadrature.
 IPart=  5 Atom number   4 atomic number  1 has       23466 grid points.
 IPart=  5 Atom   4 batch    1 overlaps   11 atoms,   108 shells and    11 DB shells.   NGrid=      2838
 Symmetry reduced    86 angular points to    86 for atom    4.
 Pruned (  99, 590) grid will be used in numerical quadrature.
 IPart=  4 Atom number   4 atomic number  1 has       23466 grid points.
 IPart=  4 Atom   4 batch    2 overlaps   11 atoms,   109 shells and    11 DB shells.   NGrid=      1552
 Symmetry reduced   194 angular points to   194 for atom    4.
 Pruned (  99, 590) grid will be used in numerical quadrature.
 IPart=  7 Atom number   4 atomic number  1 has       23466 grid points.
 IPart=  7 Atom   4 batch    3 overlaps   11 atoms,   111 shells and    11 DB shells.   NGrid=      2416
 Symmetry reduced   302 angular points to   302 for atom    4.
 Pruned (  99, 590) grid will be used in numerical quadrature.
 IPart=  0 Atom number   4 atomic number  1 has       23466 grid points.
 Pruned (  99, 590) grid will be used in numerical quadrature.
 IPart=  0 Atom   4 batch    4 overlaps   11 atoms,   111 shells and    11 DB shells.   NGrid=      1180
 IPart=  2 Atom number   4 atomic number  1 has       23466 grid points.
 Symmetry reduced   590 angular points to   590 for atom    4.
 IPart=  2 Atom   4 batch    5 overlaps   11 atoms,   112 shells and    11 DB shells.   NGrid=      1180
 Symmetry reduced   590 angular points to   590 for atom    4.
 Pruned (  99, 590) grid will be used in numerical quadrature.
 IPart=  3 Atom number   4 atomic number  1 has       23466 grid points.
 IPart=  3 Atom   4 batch    6 overlaps   11 atoms,   112 shells and    11 DB shells.   NGrid=      1180
 Symmetry reduced   590 angular points to   590 for atom    4.
 Pruned (  99, 590) grid will be used in numerical quadrature.
 IPart=  1 Atom number   4 atomic number  1 has       23466 grid points.
 IPart=  1 Atom   4 batch    7 overlaps   11 atoms,   114 shells and    11 DB shells.   NGrid=      1180
 Symmetry reduced   590 angular points to   590 for atom    4.
 Pruned (  99, 590) grid will be used in numerical quadrature.
 IPart=  6 Atom number   4 atomic number  1 has       23466 grid points.
 IPart=  6 Atom   4 batch    8 overlaps   11 atoms,   114 shells and    11 DB shells.   NGrid=      1180
 Symmetry reduced   590 angular points to   590 for atom    4.
 IPart=  0 Atom   4 batch    9 overlaps   11 atoms,   114 shells and    11 DB shells.   NGrid=      1180
 IPart=  2 Atom   4 batch   10 overlaps   11 atoms,   114 shells and    11 DB shells.   NGrid=      1180
 IPart=  3 Atom   4 batch   11 overlaps   11 atoms,   114 shells and    11 DB shells.   NGrid=      1180
 IPart=  1 Atom   4 batch   12 overlaps   11 atoms,   114 shells and    11 DB shells.   NGrid=      1180
 IPart=  6 Atom   4 batch   13 overlaps   11 atoms,   114 shells and    11 DB shells.   NGrid=       604
 Symmetry reduced   302 angular points to   302 for atom    4.
 IPart=  4 Atom   4 batch   14 overlaps   11 atoms,   113 shells and    11 DB shells.   NGrid=       604
 Symmetry reduced   302 angular points to   302 for atom    4.
 IPart=  6 Atom   4 batch   15 overlaps   11 atoms,   110 shells and    11 DB shells.   NGrid=       604
 IPart=  4 Atom   4 batch   16 overlaps   11 atoms,   106 shells and    11 DB shells.   NGrid=       604
 IPart=  4 Atom   4 batch   17 overlaps   11 atoms,    97 shells and    11 DB shells.   NGrid=       604
 IPart=  6 Atom   4 batch   18 overlaps   11 atoms,    74 shells and    11 DB shells.   NGrid=       604
 IPart=  7 Atom   4 batch   19 overlaps   11 atoms,    52 shells and    10 DB shells.   NGrid=       604
 IPart=  1 Atom   4 batch   20 overlaps   11 atoms,    33 shells and     7 DB shells.   NGrid=       604
 IPart=  5 Atom   4 batch   21 overlaps   11 atoms,    13 shells and     0 DB shells.   NGrid=       604
 Symmetry reduced   302 angular points to   302 for atom    4.
 Symmetry reduced   302 angular points to   302 for atom    4.
 IPart=  3 Atom   4 batch   22 overlaps   11 atoms,     7 shells and     0 DB shells.   NGrid=       604
 Symmetry reduced   302 angular points to   302 for atom    4.
 Pruned (  99, 590) grid will be used in numerical quadrature.
 IPart=  7 Atom number   5 atomic number  1 has       23466 grid points.
 IPart=  7 Atom   5 batch    1 overlaps   11 atoms,   108 shells and    11 DB shells.   NGrid=      2838
 Symmetry reduced    86 angular points to    86 for atom    5.
 Pruned (  99, 590) grid will be used in numerical quadrature.
 Pruned (  99, 590) grid will be used in numerical quadrature.
 IPart=  1 Atom number   5 atomic number  1 has       23466 grid points.
 IPart=  0 Atom number   5 atomic number  1 has       23466 grid points.
 IPart=  1 Atom   5 batch    2 overlaps   11 atoms,   109 shells and    11 DB shells.   NGrid=      1552
 IPart=  0 Atom   5 batch    3 overlaps   11 atoms,   111 shells and    11 DB shells.   NGrid=      2416
 Symmetry reduced   194 angular points to   194 for atom    5.
 Symmetry reduced   302 angular points to   302 for atom    5.
 Pruned (  99, 590) grid will be used in numerical quadrature.
 Pruned (  99, 590) grid will be used in numerical quadrature.
 IPart=  5 Atom number   5 atomic number  1 has       23466 grid points.
 IPart=  6 Atom number   5 atomic number  1 has       23466 grid points.
 IPart=  5 Atom   5 batch    4 overlaps   11 atoms,   111 shells and    11 DB shells.   NGrid=      1180
 IPart=  6 Atom   5 batch    5 overlaps   11 atoms,   112 shells and    11 DB shells.   NGrid=      1180
 Symmetry reduced   590 angular points to   590 for atom    5.
 Symmetry reduced   590 angular points to   590 for atom    5.
 Pruned (  99, 590) grid will be used in numerical quadrature.
 IPart=  2 Atom number   5 atomic number  1 has       23466 grid points.
 IPart=  2 Atom   5 batch    6 overlaps   11 atoms,   112 shells and    11 DB shells.   NGrid=      1180
 Symmetry reduced   590 angular points to   590 for atom    5.
 Pruned (  99, 590) grid will be used in numerical quadrature.
 IPart=  3 Atom number   5 atomic number  1 has       23466 grid points.
 IPart=  3 Atom   5 batch    7 overlaps   11 atoms,   114 shells and    11 DB shells.   NGrid=      1180
 Symmetry reduced   590 angular points to   590 for atom    5.
 Pruned (  99, 590) grid will be used in numerical quadrature.
 IPart=  4 Atom number   5 atomic number  1 has       23466 grid points.
 IPart=  4 Atom   5 batch    8 overlaps   11 atoms,   114 shells and    11 DB shells.   NGrid=      1180
 Symmetry reduced   590 angular points to   590 for atom    5.
 IPart=  5 Atom   5 batch    9 overlaps   11 atoms,   114 shells and    11 DB shells.   NGrid=      1180
 IPart=  6 Atom   5 batch   10 overlaps   11 atoms,   114 shells and    11 DB shells.   NGrid=      1180
 IPart=  2 Atom   5 batch   11 overlaps   11 atoms,   114 shells and    11 DB shells.   NGrid=      1180
 IPart=  3 Atom   5 batch   12 overlaps   11 atoms,   114 shells and    11 DB shells.   NGrid=      1180
 IPart=  4 Atom   5 batch   13 overlaps   11 atoms,   114 shells and    11 DB shells.   NGrid=       604
 Symmetry reduced   302 angular points to   302 for atom    5.
 IPart=  1 Atom   5 batch   14 overlaps   11 atoms,   113 shells and    11 DB shells.   NGrid=       604
 Symmetry reduced   302 angular points to   302 for atom    5.
 IPart=  4 Atom   5 batch   15 overlaps   11 atoms,   110 shells and    11 DB shells.   NGrid=       604
 IPart=  1 Atom   5 batch   16 overlaps   11 atoms,   106 shells and    11 DB shells.   NGrid=       604
 IPart=  1 Atom   5 batch   17 overlaps   11 atoms,    97 shells and    11 DB shells.   NGrid=       604
 IPart=  4 Atom   5 batch   18 overlaps   11 atoms,    74 shells and    11 DB shells.   NGrid=       604
 IPart=  0 Atom   5 batch   19 overlaps   11 atoms,    52 shells and    10 DB shells.   NGrid=       604
 IPart=  3 Atom   5 batch   20 overlaps   11 atoms,    33 shells and     7 DB shells.   NGrid=       604
 Symmetry reduced   302 angular points to   302 for atom    5.
 IPart=  2 Atom   5 batch   21 overlaps   11 atoms,    13 shells and     0 DB shells.   NGrid=       604
 Symmetry reduced   302 angular points to   302 for atom    5.
 IPart=  7 Atom   5 batch   22 overlaps   11 atoms,     7 shells and     0 DB shells.   NGrid=       604
 Symmetry reduced   302 angular points to   302 for atom    5.
 Pruned (  99, 590) grid will be used in numerical quadrature.
 IPart=  3 Atom number   6 atomic number  1 has       23164 grid points.
 IPart=  3 Atom   6 batch    1 overlaps   11 atoms,   111 shells and    11 DB shells.   NGrid=      2838
 Pruned (  99, 590) grid will be used in numerical quadrature.
 Symmetry reduced    86 angular points to    86 for atom    6.
 IPart=  0 Atom number   6 atomic number  1 has       23164 grid points.
 IPart=  0 Atom   6 batch    2 overlaps   11 atoms,   112 shells and    11 DB shells.   NGrid=      1552
 Symmetry reduced   194 angular points to   194 for atom    6.
 Pruned (  99, 590) grid will be used in numerical quadrature.
 IPart=  5 Atom number   6 atomic number  1 has       23164 grid points.
 IPart=  5 Atom   6 batch    3 overlaps   11 atoms,   113 shells and    11 DB shells.   NGrid=      2416
 Pruned (  99, 590) grid will be used in numerical quadrature.
 Symmetry reduced   302 angular points to   302 for atom    6.
 Pruned (  99, 590) grid will be used in numerical quadrature.
 IPart=  6 Atom number   6 atomic number  1 has       23164 grid points.
 IPart=  2 Atom number   6 atomic number  1 has       23164 grid points.
 IPart=  6 Atom   6 batch    4 overlaps   11 atoms,   114 shells and    11 DB shells.   NGrid=      1180
 IPart=  2 Atom   6 batch    5 overlaps   11 atoms,   114 shells and    11 DB shells.   NGrid=      1180
 Symmetry reduced   590 angular points to   590 for atom    6.
 Symmetry reduced   590 angular points to   590 for atom    6.
 Pruned (  99, 590) grid will be used in numerical quadrature.
 IPart=  4 Atom number   6 atomic number  1 has       23164 grid points.
 IPart=  4 Atom   6 batch    6 overlaps   11 atoms,   114 shells and    11 DB shells.   NGrid=      1180
 Symmetry reduced   590 angular points to   590 for atom    6.
 Pruned (  99, 590) grid will be used in numerical quadrature.
 IPart=  7 Atom number   6 atomic number  1 has       23164 grid points.
 IPart=  7 Atom   6 batch    7 overlaps   11 atoms,   114 shells and    11 DB shells.   NGrid=      1180
 Symmetry reduced   590 angular points to   590 for atom    6.
 Pruned (  99, 590) grid will be used in numerical quadrature.
 IPart=  1 Atom number   6 atomic number  1 has       23164 grid points.
 IPart=  1 Atom   6 batch    8 overlaps   11 atoms,   114 shells and    11 DB shells.   NGrid=      1180
 Symmetry reduced   590 angular points to   590 for atom    6.
 IPart=  6 Atom   6 batch    9 overlaps   11 atoms,   114 shells and    11 DB shells.   NGrid=      1180
 IPart=  2 Atom   6 batch   10 overlaps   11 atoms,   114 shells and    11 DB shells.   NGrid=      1180
 IPart=  4 Atom   6 batch   11 overlaps   11 atoms,   114 shells and    11 DB shells.   NGrid=      1180
 IPart=  7 Atom   6 batch   12 overlaps   11 atoms,   114 shells and    11 DB shells.   NGrid=      1180
 IPart=  1 Atom   6 batch   13 overlaps   11 atoms,   114 shells and    11 DB shells.   NGrid=       604
 Symmetry reduced   302 angular points to   302 for atom    6.
 IPart=  0 Atom   6 batch   14 overlaps   11 atoms,   114 shells and    11 DB shells.   NGrid=       604
 Symmetry reduced   302 angular points to   302 for atom    6.
 IPart=  1 Atom   6 batch   15 overlaps   11 atoms,   110 shells and    11 DB shells.   NGrid=       604
 IPart=  0 Atom   6 batch   16 overlaps   11 atoms,   107 shells and    11 DB shells.   NGrid=       604
 IPart=  0 Atom   6 batch   17 overlaps   11 atoms,    98 shells and    11 DB shells.   NGrid=       604
 IPart=  1 Atom   6 batch   18 overlaps   11 atoms,    70 shells and    11 DB shells.   NGrid=       604
 IPart=  5 Atom   6 batch   19 overlaps   11 atoms,    49 shells and    11 DB shells.   NGrid=       604
 IPart=  7 Atom   6 batch   20 overlaps   11 atoms,    31 shells and     7 DB shells.   NGrid=       604
 Symmetry reduced   302 angular points to   302 for atom    6.
 IPart=  5 Atom   6 batch   21 overlaps   11 atoms,    14 shells and     0 DB shells.   NGrid=       604
 IPart=  6 Atom   6 batch   22 overlaps   11 atoms,     7 shells and     0 DB shells.   NGrid=       302
 Symmetry reduced   302 angular points to   302 for atom    6.
 Pruned (  99, 590) grid will be used in numerical quadrature.
 IPart=  4 Atom number   7 atomic number  1 has       23164 grid points.
 IPart=  4 Atom   7 batch    1 overlaps   11 atoms,   111 shells and    11 DB shells.   NGrid=      2838
 Symmetry reduced    86 angular points to    86 for atom    7.
 Pruned (  99, 590) grid will be used in numerical quadrature.
 IPart=  3 Atom number   7 atomic number  1 has       23164 grid points.
 IPart=  3 Atom   7 batch    2 overlaps   11 atoms,   112 shells and    11 DB shells.   NGrid=      1552
 Pruned (  99, 590) grid will be used in numerical quadrature.
 Pruned (  99, 590) grid will be used in numerical quadrature.
 Symmetry reduced   194 angular points to   194 for atom    7.
 IPart=  2 Atom number   7 atomic number  1 has       23164 grid points.
 IPart=  7 Atom number   7 atomic number  1 has       23164 grid points.
 IPart=  2 Atom   7 batch    4 overlaps   11 atoms,   114 shells and    11 DB shells.   NGrid=      1180
 IPart=  7 Atom   7 batch    3 overlaps   11 atoms,   113 shells and    11 DB shells.   NGrid=      2416
 Pruned (  99, 590) grid will be used in numerical quadrature.
 Symmetry reduced   302 angular points to   302 for atom    7.
 IPart=  6 Atom number   7 atomic number  1 has       23164 grid points.
 Symmetry reduced   590 angular points to   590 for atom    7.
 IPart=  6 Atom   7 batch    5 overlaps   11 atoms,   114 shells and    11 DB shells.   NGrid=      1180
 Symmetry reduced   590 angular points to   590 for atom    7.
 Pruned (  99, 590) grid will be used in numerical quadrature.
 IPart=  1 Atom number   7 atomic number  1 has       23164 grid points.
 IPart=  1 Atom   7 batch    6 overlaps   11 atoms,   114 shells and    11 DB shells.   NGrid=      1180
 Symmetry reduced   590 angular points to   590 for atom    7.
 Pruned (  99, 590) grid will be used in numerical quadrature.
 IPart=  5 Atom number   7 atomic number  1 has       23164 grid points.
 IPart=  5 Atom   7 batch    7 overlaps   11 atoms,   114 shells and    11 DB shells.   NGrid=      1180
 Symmetry reduced   590 angular points to   590 for atom    7.
 Pruned (  99, 590) grid will be used in numerical quadrature.
 IPart=  0 Atom number   7 atomic number  1 has       23164 grid points.
 IPart=  0 Atom   7 batch    8 overlaps   11 atoms,   114 shells and    11 DB shells.   NGrid=      1180
 Symmetry reduced   590 angular points to   590 for atom    7.
 IPart=  6 Atom   7 batch    9 overlaps   11 atoms,   114 shells and    11 DB shells.   NGrid=      1180
 IPart=  2 Atom   7 batch   10 overlaps   11 atoms,   114 shells and    11 DB shells.   NGrid=      1180
 IPart=  5 Atom   7 batch   11 overlaps   11 atoms,   114 shells and    11 DB shells.   NGrid=      1180
 IPart=  1 Atom   7 batch   12 overlaps   11 atoms,   114 shells and    11 DB shells.   NGrid=      1180
 IPart=  0 Atom   7 batch   13 overlaps   11 atoms,   114 shells and    11 DB shells.   NGrid=       604
 Symmetry reduced   302 angular points to   302 for atom    7.
 IPart=  3 Atom   7 batch   14 overlaps   11 atoms,   114 shells and    11 DB shells.   NGrid=       604
[...]
 ! A12   A(7,2,8)              112.4531         -DE/DX =    0.0                 !
 ! A13   A(2,8,9)              111.5827         -DE/DX =    0.0                 !
 ! A14   A(2,8,10)             108.6566         -DE/DX =    0.0                 !
 ! A15   A(2,8,11)             111.5827         -DE/DX =    0.0                 !
 ! A16   A(9,8,10)             107.8906         -DE/DX =    0.0                 !
 ! A17   A(9,8,11)             109.0985         -DE/DX =    0.0                 !
 ! A18   A(10,8,11)            107.8906         -DE/DX =    0.0                 !
 ! D1    D(3,1,2,6)             57.9048         -DE/DX =    0.0                 !
 ! D2    D(3,1,2,7)            -57.9048         -DE/DX =    0.0                 !
 ! D3    D(3,1,2,8)            180.0            -DE/DX =    0.0                 !
 ! D4    D(4,1,2,6)            -62.3164         -DE/DX =    0.0                 !
 ! D5    D(4,1,2,7)           -178.1259         -DE/DX =    0.0                 !
 ! D6    D(4,1,2,8)             59.7789         -DE/DX =    0.0                 !
 ! D7    D(5,1,2,6)            178.1259         -DE/DX =    0.0                 !
 ! D8    D(5,1,2,7)             62.3164         -DE/DX =    0.0                 !
 ! D9    D(5,1,2,8)            -59.7789         -DE/DX =    0.0                 !
 ! D10   D(1,2,8,9)            -61.1678         -DE/DX =    0.0                 !
 ! D11   D(1,2,8,10)           180.0            -DE/DX =    0.0                 !
 ! D12   D(1,2,8,11)            61.1678         -DE/DX =    0.0                 !
 ! D13   D(6,2,8,9)             57.0663         -DE/DX =    0.0                 !
 ! D14   D(6,2,8,10)           -61.766          -DE/DX =    0.0                 !
 ! D15   D(6,2,8,11)           179.4018         -DE/DX =    0.0                 !
 ! D16   D(7,2,8,9)           -179.4018         -DE/DX =    0.0                 !
 ! D17   D(7,2,8,10)            61.766          -DE/DX =    0.0                 !
 ! D18   D(7,2,8,11)           -57.0663         -DE/DX =    0.0                 !
 --------------------------------------------------------------------------------
 GradGradGradGradGradGradGradGradGradGradGradGradGradGradGradGradGradGrad

 Leave Link  103 at Wed Jun 19 13:43:49 2024, MaxMem=  1572864000 cpu:               0.2 elap:               0.0
 (Enter /software/sse/easybuild/prefix/software/Gaussian/16.C.01-avx2-nsc1/g16/l9999.exe)

 ----------------------------------------------------------------------

 Electric dipole moment (input orientation):
 (Debye = 10**-18 statcoulomb cm , SI units = C m)
                  (au)            (Debye)         (10**-30 SI)
   Tot        0.152063D+01      0.386506D+01      0.128925D+02
   x         -0.149566D+01     -0.380158D+01     -0.126807D+02
   y         -0.274064D+00     -0.696602D+00     -0.232361D+01
   z          0.148566D-01      0.377617D-01      0.125959D+00

 Dipole polarizability, Alpha (input orientation).
 (esu units = cm**3 , SI units = C**2 m**2 J**-1)
 Alpha(0;0):
               (au)            (10**-24 esu)      (10**-40 SI)
   iso        0.301734D+02      0.447124D+01      0.497492D+01
   aniso      0.503884D+01      0.746680D+00      0.830793D+00
   xx         0.334053D+02      0.495015D+01      0.550778D+01
   yx         0.164432D+00      0.243664D-01      0.271112D-01
   yy         0.293303D+02      0.434631D+01      0.483592D+01
   zx        -0.699530D-01     -0.103660D-01     -0.115337D-01
   zy         0.230888D-01      0.342141D-02      0.380683D-02
   zz         0.277847D+02      0.411726D+01      0.458107D+01

 First dipole hyperpolarizability, Beta (input orientation).
 ||, _|_  parallel and perpendicular components, (z) with respect to z axis,
 vector components x,y,z.  Values do not include the 1/n! factor of 1/2.
 (esu units = statvolt**-1 cm**4 , SI units = C**3 m**3 J**-2)
 Beta(0;0,0):
               (au)            (10**-30 esu)      (10**-50 SI)
   || (z)     0.238431D-01      0.205986D-03      0.764495D-04
   _|_(z)     0.794769D-02      0.686619D-04      0.254832D-04
   x         -0.214905D+02     -0.185661D+00     -0.689063D-01
   y         -0.972071D+01     -0.839794D-01     -0.311681D-01
   z          0.119215D+00      0.102993D-02      0.382248D-03
   ||         0.471740D+01      0.407547D-01      0.151257D-01
   xxx       -0.674219D+01     -0.582473D-01     -0.216179D-01
   xxy        0.668968D+01      0.577936D-01      0.214495D-01
   yxy       -0.929030D+00     -0.802609D-02     -0.297880D-02
   yyy       -0.281391D+01     -0.243100D-01     -0.902242D-02
   xxz        0.209456D+00      0.180954D-02      0.671592D-03
   yxz       -0.202008D+00     -0.174519D-02     -0.647711D-03
   yyz        0.198360D+00      0.171367D-02      0.636012D-03
   zxz        0.507725D+00      0.438635D-02      0.162795D-02
   zyz       -0.711600D+01     -0.614767D-01     -0.228165D-01
   zzz       -0.368077D+00     -0.317990D-02     -0.118019D-02

 ----------------------------------------------------------------------

 Dipole orientation:
     7          0.01605867         -0.09773733          2.30833541
     6         -0.18108239          1.10194684         -0.28387324
     1         -0.19558068          1.19017488          3.69359489
     1          1.70889426         -0.93481152          2.54943736
     1         -1.31988078         -1.43252245          2.54943736
     1          1.26528346          2.53704452         -0.35141292
     1         -2.01063875          1.99872053         -0.35141292
     6          0.14362970         -0.87405933         -2.32802773
     1          1.98099139         -1.77074508         -2.22353357
     1         -0.00637725          0.03879446         -4.14888716
     1         -1.31015916         -2.31157151         -2.22353357

 Electric dipole moment (dipole orientation):
 (Debye = 10**-18 statcoulomb cm , SI units = C m)
                  (au)            (Debye)         (10**-30 SI)
   Tot        0.152063D+01      0.386506D+01      0.128925D+02
   x          0.000000D+00      0.000000D+00      0.000000D+00
   y          0.000000D+00      0.000000D+00      0.000000D+00
   z          0.152063D+01      0.386506D+01      0.128925D+02

 Dipole polarizability, Alpha (dipole orientation).
 (esu units = cm**3 , SI units = C**2 m**2 J**-1)
 Alpha(0;0):
               (au)            (10**-24 esu)      (10**-40 SI)
   iso        0.301734D+02      0.447124D+01      0.497492D+01
   aniso      0.503884D+01      0.746680D+00      0.830793D+00
   xx         0.278260D+02      0.412339D+01      0.458789D+01
   yx        -0.259461D+00     -0.384481D-01     -0.427793D-01
   yy         0.293623D+02      0.435104D+01      0.484119D+01
   zx        -0.922807D-01     -0.136746D-01     -0.152150D-01
   zy         0.561566D+00      0.832155D-01      0.925897D-01
   zz         0.333319D+02      0.493928D+01      0.549569D+01

 First dipole hyperpolarizability, Beta (dipole orientation).
 ||, _|_  parallel and perpendicular components, (z) with respect to z axis,
 vector components x,y,z.  Values do not include the 1/n! factor of 1/2.
 (esu units = statvolt**-1 cm**4 , SI units = C**3 m**3 J**-2)
 Beta(0;0,0):
               (au)            (10**-30 esu)      (10**-50 SI)
   || (z)     0.457813D+01      0.395515D-01      0.146791D-01
   _|_(z)     0.152604D+01      0.131838D-01      0.489305D-02
   x          0.922495D+00      0.796964D-02      0.295785D-02
   y         -0.561376D+01     -0.484985D-01     -0.179997D-01
   z          0.228907D+02      0.197757D+00      0.733957D-01
   ||         0.471740D+01      0.407547D-01      0.151257D-01
   xxx        0.337005D+01      0.291146D-01      0.108056D-01
   xxy       -0.649358D+01     -0.560994D-01     -0.208208D-01
   yxy       -0.197457D+01     -0.170587D-01     -0.633118D-02
   yyy       -0.199849D+01     -0.172654D-01     -0.640789D-02
   xxz        0.856148D+00      0.739645D-02      0.274512D-02
   yxz       -0.488415D+00     -0.421953D-02     -0.156604D-02
   yyz        0.374810D+01      0.323806D-01      0.120177D-01
   zxz       -0.108798D+01     -0.939931D-02     -0.348846D-02
   zyz        0.662081D+01      0.571987D-01      0.212287D-01
   zzz        0.302597D+01      0.261421D-01      0.970237D-02

 ----------------------------------------------------------------------

 Test job not archived.
 1\1\NSC-N417\Freq\RHF\Aug-CC-pVTZ\C2H8N1(1+)\X_DAVVA\19-Jun-2024\0\\#P
  Geom=AllCheck Guess=TCheck SCRF=Check Test GenChk RHF/Aug-CC-pVTZ Fre
 q\\ethylammonium\\1,1\N,-1.1920199939,-0.2717031721,0.0109709668\C,0.0
 413626878,0.6082633549,0.0093783836\H,-2.0373717272,0.2754503351,0.030
 8106246\H,-1.2021770827,-0.8806731012,0.8134796698\H,-1.2231574793,-0.
 8542054394,-0.8104237768\H,-0.024704867,1.2153292536,0.8987130374\H,-0
 .0473972581,1.243956669,-0.8577004687\C,1.2960932007,-0.2389635126,-0.
 0206411709\H,1.36578391,-0.8788613914,0.850699691\H,2.1556919634,0.416
 1563555,-0.0210692949\H,1.3429860319,-0.8501008995,-0.9138786224\\Vers
 ion=ES64L-G16RevC.01\State=1-A'\HF=-134.6756406\RMSD=1.213e-09\RMSF=4.
 036e-08\ZeroPoint=0.1143371\Thermal=0.1187175\ETot=-134.5569231\HTot=-
 134.5559789\GTot=-134.5869401\Dipole=-1.495658,-0.2740643,0.0148566\Di
 poleDeriv=-0.5470508,-0.1441356,0.0026347,-0.1826696,-0.2936971,0.0002
 019,0.0020067,-0.0002959,-0.1613185,0.6820477,0.2557462,-0.0019689,0.2
 94388,0.3549937,-0.0013916,-0.0013391,-0.0008924,0.2070213,0.2932013,-
 0.0349149,-0.0011674,-0.062253,0.2462306,0.0007936,-0.001613,0.0004404
 ,0.2469152,0.2462922,0.0071043,-0.0291589,0.0063387,0.2537988,-0.03315
 74,-0.0314519,-0.0354021,0.2712313,0.2478802,0.0070444,0.0300218,0.006
 1467,0.2515894,0.0323813,0.0322876,0.0346045,0.2718527,-0.0084598,0.00
 56391,0.0430948,-0.0134676,0.045739,-0.0272298,0.0381224,-0.055584,0.0
 082233,-0.0105481,0.0084808,-0.0423444,-0.0115038,0.043,0.0286522,-0.0
 380092,0.0565014,0.0130505,-0.0116501,-0.0766056,0.0005408,-0.0500209,
 0.0502769,-0.0006018,0.0009741,-0.0002583,0.1268335,0.0472047,0.004771
 3,0.0375979,0.0250451,0.0107697,0.0701186,0.0276533,0.0843928,-0.03982
 33,0.01561,-0.0370018,0.0004758,-0.0361762,0.0215377,-0.0007971,0.0004
 893,-0.0007864,0.0990969,0.0454727,0.0038718,-0.0397261,0.0241727,0.01
 57613,-0.0689701,-0.0291202,-0.08272,-0.0430829\Polar=33.4052502,0.164
 4324,29.3303219,-0.069953,0.0230888,27.7846616\PolarDeriv=-0.6354025,-
 3.3283597,0.1246954,-0.0371678,0.0774204,0.3714068,-4.038152,-0.066932
 5,0.6603562,0.0847718,-0.08585,3.005091,-0.049402,0.0751373,-0.0877399
 ,0.3199844,2.9692498,0.1328678,1.0423822,3.8396225,-0.039985,0.0600884
 ,-0.1104859,0.0288146,3.7829923,0.7015279,-1.3595738,-0.1074011,0.1155
 481,-4.3796998,0.0693001,-0.1111855,0.1289794,0.8133005,-4.6159455,-0.
 2434874,-6.2224313,1.5686132,-1.2592276,0.0816522,-0.0249718,-0.883562
 7,2.7234381,-1.3373635,1.5298783,-0.0360395,0.0345198,0.3615323,0.0989
 66,-0.0243422,0.0375759,-1.0005031,0.1119448,0.0467509,-0.3319861,-0.2
 973188,-0.0946575,0.6920658,0.0804916,-0.186669,-0.6245338,-0.6676905,
 -2.6515233,0.3411346,1.4927297,-1.7631579,1.368578,0.5239318,1.9021525
 ,-0.71865,-1.8779846,3.2334955,-0.4043782,-0.2909591,-0.1368065,-0.717
 0095,-0.1180475,-0.2420377,-0.5974588,-0.6763322,-2.4945357,-0.3680451
 ,-1.4412231,-1.7328722,-1.4176635,-0.5621955,-1.861026,-0.77902,-1.862
 9451,-3.3682663,-0.1371386,0.3571611,-0.1659723,0.9302755,-0.1348988,-
 0.2089896,0.5444129,-0.2602647,3.4827964,-0.1814663,1.9277495,2.3015,1
 .6261329,-0.1784192,2.5993795,-0.3832607,2.8054366,4.3459823,-0.227179
 4,0.3972539,-0.2448023,-0.9296497,0.1983645,-0.2586708,0.6080051,-0.32
 42311,3.6955935,0.2295498,-1.9694024,2.3008232,-1.6232528,0.2443931,-2
 .6593593,-0.4122626,2.7834206,-4.0620322,-1.3678451,-4.0997461,-1.0070
 149,-0.0672263,0.1110457,-0.5896945,-4.6623194,-1.1721059,0.8189744,0.
 1165061,-0.1317997,4.8124996,-0.079136,0.1118119,-0.1371799,-0.8017058
 ,5.0118045,0.2704129,0.8409182,-0.3441251,0.3523283,0.944916,-0.17647,
 0.4106009,-0.7595828,0.8722299,-3.1785645,-0.4577277,1.9407239,-2.6370
 596,1.8136368,-0.6543765,2.4956062,0.9198989,-2.6825462,4.5321341,6.69
 77349,2.4913882,2.1921943,-0.0155679,-0.0155667,1.211189,3.7013916,2.1
 427972,2.4700229,-0.0267727,0.0058713,0.3626832,0.0032098,-0.0151809,0
 .0103313,1.137942,0.0497458,-0.037547,0.7453258,-0.2935301,0.2792479,-
 0.9423768,0.1131186,0.3476128,-0.6781928,0.7883655,-2.9734243,0.40549,
 -1.8888673,-2.6313399,-1.810369,0.5904259,-2.4287196,0.9042763,-2.6921
 806,-4.8503107\HyperPolar=-6.7421897,6.6896764,-0.9290296,-2.8139127,0
 .2094562,-0.202008,0.1983596,0.5077249,-7.1160014,-0.3680773\Quadrupol
 e=3.5668044,-1.5657472,-2.0010573,1.1736636,-0.0528131,-0.0080594\PG=C
 S [SG(C2H2N1),X(H6)]\NImag=0\\0.66433246,-0.12445032,0.74571989,0.0000
 6946,0.00028785,0.82671205,-0.12781778,-0.01906818,-0.00012169,0.46630
 146,-0.01901640,-0.13054295,-0.00003728,-0.07912190,0.60143337,-0.0001
 2085,-0.00003661,-0.11318065,0.00210323,-0.00105547,0.72886467,-0.3401
 9065,0.18479811,0.00643687,-0.02113626,0.01639324,0.00053873,0.3538406
 4,0.17421119,-0.18832720,-0.00409620,-0.01830489,0.02177493,0.00059334
 ,-0.19244682,0.19568555,0.00626431,-0.00423298,-0.07525146,-0.00002681
 ,0.00014505,-0.00011616,-0.00684140,0.00458233,0.06725208,-0.07076146,
 -0.00052666,0.00559594,0.00434030,-0.01841072,0.02853611,0.00358016,0.
 02100520,-0.03294530,0.06690351,0.00526661,-0.21071760,0.18705030,-0.0
 0066914,-0.01294271,0.01750027,-0.00219308,-0.01309740,0.01910956,-0.0
 0056206,0.21516338,-0.00179637,0.18159695,-0.31993510,0.00387939,-0.00
 020979,0.00539644,-0.00110810,-0.00319544,0.00466325,0.00109675,-0.198
 70344,0.33392994,-0.07102783,-0.00487838,-0.01227123,0.00349582,-0.017
 46786,-0.02907918,0.00446788,0.01998876,0.03361168,-0.00066435,-0.0002
 7195,-0.00026479,0.06702889,0.00052816,-0.19882605,-0.18317921,-0.0010
 0244,-0.01236774,-0.01807154,-0.00272819,-0.01255283,-0.01959298,0.000
 31870,0.02102085,0.02354629,0.00443851,0.20234697,-0.00469638,-0.17758
 116,-0.33156028,-0.00386492,0.00008046,0.00566593,0.00102612,0.0021188
 1,0.00323097,-0.00038257,-0.02202237,-0.02573041,0.00603070,0.19436346
 ,0.34662097,-0.00656912,-0.02709359,-0.03270068,-0.06128302,0.01636444
 ,0.02491262,0.00149776,0.00018311,-0.00083286,0.00142239,0.00099594,-0
 .00035095,-0.00588182,-0.00347481,0.00173808,0.07154260,-0.00496412,-0
 .01719854,-0.02053692,0.01081292,-0.14828041,-0.12734510,0.00040463,0.
 00046436,-0.00005264,0.00070612,-0.00018448,-0.00078679,-0.00376688,-0
 .00146112,0.00125190,-0.00631866,0.15946933,0.00031209,0.00411784,0.00
 550986,0.01413793,-0.13581454,-0.26884865,-0.00095899,-0.00061939,-0.0
 0031306,-0.00055159,-0.00044719,0.00063791,0.00129814,0.00148120,0.001
 01194,-0.01690326,0.14551880,0.27738106,-0.00573811,-0.02825654,0.0320
 9599,-0.06241547,0.02080393,-0.02953019,0.00154307,0.00017291,0.000790
 99,-0.00595869,-0.00345737,-0.00167209,0.00144590,0.00099517,0.0003630
 3,0.00145075,-0.00038967,0.00170111,0.07254433,-0.00443374,-0.01772307
 ,0.01991451,0.01468738,-0.15696654,0.13064613,0.00037550,0.00044187,0.
 00006793,-0.00375760,-0.00137249,-0.00123368,0.00070783,-0.00022309,0.
 00074082,-0.00076690,0.01596652,-0.01651296,-0.01075434,0.16906670,-0.
 00016781,-0.00414656,0.00520338,-0.01894568,0.13896482,-0.25903007,0.0
 0092402,0.00064016,-0.00033588,-0.00124180,-0.00147063,0.00100019,0.00
 055427,0.00039376,0.00065300,-0.00230630,0.01774077,-0.02122685,0.0217
 9538,-0.14881459,0.26678197,-0.04169747,0.01574389,0.00081145,-0.17341
 643,0.05991802,0.00188345,-0.00345967,-0.00383105,-0.00001948,0.002010
 18,0.00064389,0.00028342,0.00195811,0.00068205,-0.00029856,0.00099326,
 0.00127125,0.00051036,0.00025086,0.00171119,-0.00037745,0.56994126,-0.
 03497232,0.01605726,0.00069321,0.08051914,-0.15043621,-0.00180978,-0.0
 0565762,-0.00550445,-0.00001444,-0.00009481,0.00213913,-0.00149338,0.0
 0000064,0.00205344,0.00154462,0.01780910,-0.00912458,0.00190921,0.0186
 7020,-0.00958438,-0.00281207,0.04881270,0.61962258,-0.00001517,0.00003
 797,0.00124853,0.00221923,-0.00154362,-0.10327820,-0.00004925,-0.00003
 803,-0.00013401,0.00170402,-0.00109193,0.00049346,-0.00174231,0.001124
 82,0.00063121,0.02861904,-0.01669102,0.00327537,-0.02794016,0.01622092
 ,0.00447757,0.00171353,-0.00097892,0.64095271,0.00295962,-0.00050542,-
 0.00058407,-0.00323148,0.02122449,-0.02957425,0.00039906,0.00029341,0.
 00021848,-0.00091323,-0.00025612,0.00001975,-0.00020920,0.00006585,-0.
 00015887,0.00134039,-0.00116249,0.00049682,-0.00553645,0.00349357,0.00
 089798,-0.05918070,0.00849278,-0.01009588,0.06093356,-0.00031420,0.001
 62997,-0.00083904,-0.00121611,-0.01380787,0.01751407,-0.00011913,-0.00
 004692,-0.00017940,0.00091840,0.00048067,0.00027549,0.00011784,-0.0000
 1310,-0.00010629,-0.00059175,0.00024424,-0.00011463,0.00378090,-0.0007
 7170,-0.00093790,0.01076825,-0.15367307,0.13042235,-0.01414887,0.16283
 358,-0.00068066,-0.00059829,0.00028932,0.00040776,-0.00276914,0.003860
 69,-0.00015759,-0.00021035,0.00022000,-0.00109270,0.00037275,-0.000109
 28,0.00008981,0.00018845,-0.00033910,-0.00087953,0.00014767,0.00090250
 ,0.00148032,-0.00064639,0.00146467,-0.01153148,0.13318608,-0.24250233,
 0.01293008,-0.14691925,0.25710695,-0.00647983,0.00474397,0.00016959,-0
 .02237170,-0.02099136,-0.00007796,-0.00093945,-0.00157748,-0.00000646,
 0.00024862,0.00044733,-0.00024443,0.00027132,0.00044195,0.00025184,0.0
 0107691,-0.00012566,0.00055787,0.00106459,-0.00011368,-0.00058655,-0.2
 3866005,-0.13841470,0.00013337,0.00403972,0.00234590,0.00067222,0.2583
 8643,0.00845791,-0.00165309,-0.00014700,0.01502725,0.01543702,0.000088
 82,0.00129293,0.00122133,-0.00000577,0.00027983,-0.00047865,0.00008989
 ,0.00025667,-0.00047877,-0.00011196,-0.00095303,0.00092251,-0.00028230
 ,-0.00094818,0.00092089,0.00033326,-0.14285317,-0.16637490,0.00000950,
 -0.01637804,-0.01221993,-0.00089793,0.15134158,0.17436516,0.00023012,-
 0.00009902,0.00065698,0.00050910,0.00055417,-0.00192166,0.00004032,0.0
 0003132,0.00055031,-0.00062955,-0.00011803,-0.00000311,0.00063121,0.00
 009140,-0.00002570,-0.00012312,0.00027311,0.00010546,0.00006736,-0.000
 24362,0.00011940,0.00006103,-0.00004784,-0.05372240,0.02520255,0.01778
 620,0.00088155,-0.00019516,0.00003330,0.05235970,0.00299017,-0.0005068
 8,0.00049838,-0.00246543,0.02030413,0.03040828,0.00039744,0.00030566,-
 0.00021314,-0.00020743,0.00005594,0.00015742,-0.00088472,-0.00026495,-
 0.00000847,-0.00559011,0.00353257,-0.00060049,0.00134924,-0.00114920,-
 0.00054606,-0.05873936,0.00483488,0.00545358,-0.00060129,-0.00154122,-
 0.00123824,0.00336344,-0.01552373,-0.02579385,0.06038803,-0.00031276,0
 .00158138,0.00088979,-0.00166403,-0.01330090,-0.01802411,-0.00011957,-
 0.00005925,0.00017335,0.00012360,-0.00001070,0.00011390,0.00087482,0.0
 0050142,-0.00027829,0.00384616,-0.00081783,0.00076398,-0.00061703,0.00
 024527,0.00010898,0.00713299,-0.14517483,-0.12747203,-0.00111915,0.015
 34412,0.01814641,0.00190215,-0.01166158,-0.01826098,-0.01004719,0.1533
 5290,0.00060126,0.00065402,0.00030737,-0.00029755,0.00168535,0.0025876
 6,0.00014928,0.00019348,0.00023395,-0.00008931,-0.00017929,-0.00034328
 ,0.00114170,-0.00034565,-0.00015854,-0.00117304,0.00048022,0.00156446,
 0.00084827,-0.00013907,0.00089262,0.00696372,-0.13017667,-0.25144190,0
 .00064740,-0.01690159,-0.02177497,-0.00067433,0.00089019,0.00099947,-0
 .00811740,0.14383900,0.26713316\\0.00000010,0.00000006,0.,-0.00000006,
 -0.00000007,0.,-0.00000008,0.00000005,0.,0.00000001,-0.00000004,0.0000
 0004,0.00000001,-0.00000004,-0.00000004,0.00000002,0.,0.,0.00000002,0.
 ,0.,-0.00000004,-0.00000007,0.,0.00000003,0.00000006,0.,-0.00000003,-0
 .00000003,0.,0.00000003,0.00000006,0.\\\@


 WHEN YOU'VE SEEN ONE NUCLEAR WAR YOU'VE SEEN THEM ALL.
 Job cpu time:       0 days  0 hours 37 minutes  0.2 seconds.
 Elapsed time:       0 days  0 hours  4 minutes 39.6 seconds.
 File lengths (MBytes):  RWF=    372 Int=      0 D2E=      0 Chk=     16 Scr=      8
 Normal termination of Gaussian 16 at Wed Jun 19 13:43:49 2024.
