 Entering Gaussian System, Link 0=/software/sse/easybuild/prefix/software/Gaussian/16.C.01-avx2-nsc1/g16/g16.orig
 Input=methylammonium-19-oep.wrap
 Output=methylammonium-19-oep.log
 Initial command:
 /software/sse/easybuild/prefix/software/Gaussian/16.C.01-avx2-nsc1/g16/l1.exe "methylammonium-19-oep..dir/Gau-29887.inp" -scrdir="methylammonium-19-oep..dir/"
 Entering Link 1 = /software/sse/easybuild/prefix/software/Gaussian/16.C.01-avx2-nsc1/g16/l1.exe PID=     29969.
  
 Copyright (c) 1988-2019, Gaussian, Inc.  All Rights Reserved.
  
 This is part of the Gaussian(R) 16 program.  It is based on
 the Gaussian(R) 09 system (copyright 2009, Gaussian, Inc.),
 the Gaussian(R) 03 system (copyright 2003, Gaussian, Inc.),
 the Gaussian(R) 98 system (copyright 1998, Gaussian, Inc.),
 the Gaussian(R) 94 system (copyright 1995, Gaussian, Inc.),
 the Gaussian 92(TM) system (copyright 1992, Gaussian, Inc.),
 the Gaussian 90(TM) system (copyright 1990, Gaussian, Inc.),
 the Gaussian 88(TM) system (copyright 1988, Gaussian, Inc.),
 the Gaussian 86(TM) system (copyright 1986, Carnegie Mellon
 University), and the Gaussian 82(TM) system (copyright 1983,
 Carnegie Mellon University). Gaussian is a federally registered
 trademark of Gaussian, Inc.
  
 This software contains proprietary and confidential information,
 including trade secrets, belonging to Gaussian, Inc.
  
 This software is provided under written license and may be
 used, copied, transmitted, or stored only in accord with that
 written license.
  
 The following legend is applicable only to US Government
 contracts under FAR:
  
                    RESTRICTED RIGHTS LEGEND
  
 Use, reproduction and disclosure by the US Government is
 subject to restrictions as set forth in subparagraphs (a)
 and (c) of the Commercial Computer Software - Restricted
 Rights clause in FAR 52.227-19.
  
 Gaussian, Inc.
 340 Quinnipiac St., Bldg. 40, Wallingford CT 06492
  
  
 ---------------------------------------------------------------
 Warning -- This program may not be used in any manner that
 competes with the business of Gaussian, Inc. or will provide
 assistance to any competitor of Gaussian, Inc.  The licensee
 of this program is prohibited from giving any competitor of
 Gaussian, Inc. access to this program.  By using this program,
 the user acknowledges that Gaussian, Inc. is engaged in the
 business of creating and licensing software in the field of
 computational chemistry and represents and warrants to the
 licensee that it is not a competitor of Gaussian, Inc. and that
 it will not use this program in any manner prohibited above.
 ---------------------------------------------------------------
  

 Cite this work as:
 Gaussian 16, Revision C.01,
 M. J. Frisch, G. W. Trucks, H. B. Schlegel, G. E. Scuseria, 
 M. A. Robb, J. R. Cheeseman, G. Scalmani, V. Barone, 
 G. A. Petersson, H. Nakatsuji, X. Li, M. Caricato, A. V. Marenich, 
 J. Bloino, B. G. Janesko, R. Gomperts, B. Mennucci, H. P. Hratchian, 
 J. V. Ortiz, A. F. Izmaylov, J. L. Sonnenberg, D. Williams-Young, 
 F. Ding, F. Lipparini, F. Egidi, J. Goings, B. Peng, A. Petrone, 
 T. Henderson, D. Ranasinghe, V. G. Zakrzewski, J. Gao, N. Rega, 
 G. Zheng, W. Liang, M. Hada, M. Ehara, K. Toyota, R. Fukuda, 
 J. Hasegawa, M. Ishida, T. Nakajima, Y. Honda, O. Kitao, H. Nakai, 
 T. Vreven, K. Throssell, J. A. Montgomery, Jr., J. E. Peralta, 
 F. Ogliaro, M. J. Bearpark, J. J. Heyd, E. N. Brothers, K. N. Kudin, 
 V. N. Staroverov, T. A. Keith, R. Kobayashi, J. Normand, 
 K. Raghavachari, A. P. Rendell, J. C. Burant, S. S. Iyengar, 
 J. Tomasi, M. Cossi, J. M. Millam, M. Klene, C. Adamo, R. Cammi, 
 J. W. Ochterski, R. L. Martin, K. Morokuma, O. Farkas, 
 J. B. Foresman, and D. J. Fox, Gaussian, Inc., Wallingford CT, 2019.
 
 ******************************************
 Gaussian 16:  ES64L-G16RevC.01  3-Jul-2019
                19-Jun-2024 
 ******************************************
 %mem=12000MB
 %nprocshared=8
 Will use up to    8 processors via shared memory.
 %chk=methylammonium19.chk
 ----------------------------------------------------------------------
 #P HF/aug-cc-pvtz Opt=(Redundant, calcall, verytight) symm=(loose,foll
 ow) Pop=(MK,Hirshfeld,ReadRadii) iop(6/33=2) iop(6/42=6) Polar Freq ma
 xdisk=128GB
 ----------------------------------------------------------------------
 1/7=1,10=4,18=20,19=15,38=1/1,3;
 2/9=110,12=2,17=4,18=3,40=1/2;
 3/5=16,6=1,7=10,11=9,25=1,30=1,71=2,140=1/1,2,3;
 4//1;
 5/5=2,38=5,98=1/2;
 8/6=4,10=90,11=11/1;
 11/6=1,8=1,9=11,15=111,16=1/1,2,10;
 10/6=1/2;
 6/7=2,8=2,9=2,10=2,15=8,18=1,20=101,28=1,33=2,42=6,79=1/1,2;
 7/10=1,25=1/1,2,3,16;
 1/7=1,10=4,18=20,19=15/3(3);
 2/9=110,15=5/2;
 7/8=1,9=1,25=1,44=-1/16;
 99//99;
 2/9=110,15=5/2;
 3/5=16,6=1,7=10,11=9,25=1,30=1,71=2,140=1/1,2,3;
 4/5=5,16=3,69=1/1;
 5/5=2,38=5,98=1/2;
 8/6=4,10=90,11=11/1;
 11/6=1,8=1,9=11,15=111,16=1/1,2,10;
 10/6=1/2;
 7/10=1,25=1/1,2,3,16;
 1/7=1,10=4,18=20,19=15/3(-8);
 2/9=110,15=5/2;
 6/7=2,8=2,9=2,10=2,15=8,18=1,19=2,20=101,28=1,33=2,42=6,79=1/1,2;
 7/8=1,9=1,25=1,44=-1/16;
 99//99;
 Leave Link    1 at Wed Jun 19 08:44:05 2024, MaxMem=  1572864000 cpu:               1.4 elap:               0.2
 (Enter /software/sse/easybuild/prefix/software/Gaussian/16.C.01-avx2-nsc1/g16/l101.exe)
 --------------
 methylammonium
 --------------
 Symbolic Z-matrix:
 Charge =  1 Multiplicity = 1
 N                     0.        0.        0.71227 
 C                     0.        0.       -0.80323 
 H                     0.        0.95358   1.08813 
 H                     0.82582  -0.47679   1.08813 
 H                    -0.82582  -0.47679   1.08813 
 H                     0.89455   0.51647  -1.14363 
 H                    -0.89455   0.51647  -1.14363 
 H                     0.       -1.03294  -1.14363 
 
 ITRead=  0  0  0  0  0  0  0  0
 MicOpt= -1 -1 -1 -1 -1 -1 -1 -1
 NAtoms=      8 NQM=        8 NQMF=       0 NMMI=      0 NMMIF=      0
                NMic=       0 NMicF=      0.
                    Isotopes and Nuclear Properties:
 (Nuclear quadrupole moments (NQMom) in fm**2, nuclear magnetic moments (NMagM)
  in nuclear magnetons)

  Atom         1           2           3           4           5           6           7           8
 IAtWgt=          14          12           1           1           1           1           1           1
 AtmWgt=  14.0030740  12.0000000   1.0078250   1.0078250   1.0078250   1.0078250   1.0078250   1.0078250
 NucSpn=           2           0           1           1           1           1           1           1
 AtZEff=  -0.0000000  -0.0000000  -0.0000000  -0.0000000  -0.0000000  -0.0000000  -0.0000000  -0.0000000
 NQMom=    2.0440000   0.0000000   0.0000000   0.0000000   0.0000000   0.0000000   0.0000000   0.0000000
 NMagM=    0.4037610   0.0000000   2.7928460   2.7928460   2.7928460   2.7928460   2.7928460   2.7928460
 AtZNuc=   7.0000000   6.0000000   1.0000000   1.0000000   1.0000000   1.0000000   1.0000000   1.0000000
 Leave Link  101 at Wed Jun 19 08:44:06 2024, MaxMem=  1572864000 cpu:               1.9 elap:               0.3
 (Enter /software/sse/easybuild/prefix/software/Gaussian/16.C.01-avx2-nsc1/g16/l103.exe)

 GradGradGradGradGradGradGradGradGradGradGradGradGradGradGradGradGradGrad
 Berny optimization.
 Initialization pass.
                           ----------------------------
                           !    Initial Parameters    !
                           ! (Angstroms and Degrees)  !
 --------------------------                            --------------------------
 ! Name  Definition              Value          Derivative Info.                !
 --------------------------------------------------------------------------------
 ! R1    R(1,2)                  1.5155         calculate D2E/DX2 analytically  !
 ! R2    R(1,3)                  1.025          calculate D2E/DX2 analytically  !
 ! R3    R(1,4)                  1.025          calculate D2E/DX2 analytically  !
 ! R4    R(1,5)                  1.025          calculate D2E/DX2 analytically  !
 ! R5    R(2,6)                  1.0876         calculate D2E/DX2 analytically  !
 ! R6    R(2,7)                  1.0876         calculate D2E/DX2 analytically  !
 ! R7    R(2,8)                  1.0876         calculate D2E/DX2 analytically  !
 ! A1    A(2,1,3)              111.5122         calculate D2E/DX2 analytically  !
 ! A2    A(2,1,4)              111.5122         calculate D2E/DX2 analytically  !
 ! A3    A(2,1,5)              111.5122         calculate D2E/DX2 analytically  !
 ! A4    A(3,1,4)              107.3553         calculate D2E/DX2 analytically  !
 ! A5    A(3,1,5)              107.3553         calculate D2E/DX2 analytically  !
 ! A6    A(4,1,5)              107.3554         calculate D2E/DX2 analytically  !
 ! A7    A(1,2,6)              108.2396         calculate D2E/DX2 analytically  !
 ! A8    A(1,2,7)              108.2396         calculate D2E/DX2 analytically  !
 ! A9    A(1,2,8)              108.2396         calculate D2E/DX2 analytically  !
 ! A10   A(6,2,7)              110.6743         calculate D2E/DX2 analytically  !
 ! A11   A(6,2,8)              110.6743         calculate D2E/DX2 analytically  !
 ! A12   A(7,2,8)              110.6743         calculate D2E/DX2 analytically  !
 ! D1    D(3,1,2,6)             60.0            calculate D2E/DX2 analytically  !
 ! D2    D(3,1,2,7)            -60.0            calculate D2E/DX2 analytically  !
 ! D3    D(3,1,2,8)            180.0            calculate D2E/DX2 analytically  !
 ! D4    D(4,1,2,6)            -60.0            calculate D2E/DX2 analytically  !
 ! D5    D(4,1,2,7)           -180.0            calculate D2E/DX2 analytically  !
 ! D6    D(4,1,2,8)             60.0            calculate D2E/DX2 analytically  !
 ! D7    D(5,1,2,6)            180.0            calculate D2E/DX2 analytically  !
 ! D8    D(5,1,2,7)             60.0            calculate D2E/DX2 analytically  !
 ! D9    D(5,1,2,8)            -60.0            calculate D2E/DX2 analytically  !
 --------------------------------------------------------------------------------
 Trust Radius=3.00D-01 FncErr=1.00D-07 GrdErr=1.00D-07 EigMax=2.50D+02 EigMin=1.00D-04
 Number of steps in this run=     38 maximum allowed number of steps=    100.
 GradGradGradGradGradGradGradGradGradGradGradGradGradGradGradGradGradGrad

 Leave Link  103 at Wed Jun 19 08:44:06 2024, MaxMem=  1572864000 cpu:               0.1 elap:               0.0
 (Enter /software/sse/easybuild/prefix/software/Gaussian/16.C.01-avx2-nsc1/g16/l202.exe)
                          Input orientation:                          
 ---------------------------------------------------------------------
 Center     Atomic      Atomic             Coordinates (Angstroms)
 Number     Number       Type             X           Y           Z
 ---------------------------------------------------------------------
      1          7           0        0.000000    0.000000    0.712271
      2          6           0        0.000000    0.000000   -0.803230
      3          1           0        0.000000    0.953575    1.088129
      4          1           0        0.825820   -0.476787    1.088129
      5          1           0       -0.825820   -0.476787    1.088129
      6          1           0        0.894550    0.516469   -1.143633
      7          1           0       -0.894550    0.516469   -1.143633
      8          1           0        0.000000   -1.032937   -1.143633
 ---------------------------------------------------------------------
                    Distance matrix (angstroms):
                    1          2          3          4          5
     1  N    0.000000
     2  C    1.515501   0.000000
     3  H    1.024975   2.118146   0.000000
     4  H    1.024975   2.118146   1.651640   0.000000
     5  H    1.024975   2.118146   1.651640   1.651640   0.000000
     6  H    2.123991   1.087582   2.443776   2.443776   2.987807
     7  H    2.123991   1.087582   2.443776   2.987807   2.443776
     8  H    2.123991   1.087581   2.987807   2.443776   2.443776
                    6          7          8
     6  H    0.000000
     7  H    1.789100   0.000000
     8  H    1.789100   1.789100   0.000000
 Stoichiometry    CH6N(1+)
 Framework group  C3V[C3(CN),3SGV(H2)]
 Deg. of freedom     5
 Full point group                 C3V     NOp   6
 Largest Abelian subgroup         CS      NOp   2
 Largest concise Abelian subgroup CS      NOp   2
                         Standard orientation:                         
 ---------------------------------------------------------------------
 Center     Atomic      Atomic             Coordinates (Angstroms)
 Number     Number       Type             X           Y           Z
 ---------------------------------------------------------------------
      1          7           0        0.000000    0.000000    0.712271
      2          6           0        0.000000    0.000000   -0.803230
      3          1           0        0.000000    0.953575    1.088129
      4          1           0        0.825820   -0.476787    1.088129
      5          1           0       -0.825820   -0.476787    1.088129
      6          1           0        0.894550    0.516469   -1.143633
      7          1           0       -0.894550    0.516469   -1.143633
      8          1           0       -0.000000   -1.032937   -1.143633
 ---------------------------------------------------------------------
 Rotational constants (GHZ):          84.5796033          19.9224584          19.9224584
 Leave Link  202 at Wed Jun 19 08:44:07 2024, MaxMem=  1572864000 cpu:               0.1 elap:               0.0
 (Enter /software/sse/easybuild/prefix/software/Gaussian/16.C.01-avx2-nsc1/g16/l301.exe)
 Standard basis: Aug-CC-pVTZ (5D, 7F)
 Ernie: Thresh=  0.10000D-02 Tol=  0.10000D-05 Strict=F.
 Ernie:  6 primitive shells out of 126 were deleted.
 There are   160 symmetry adapted cartesian basis functions of A'  symmetry.
 There are   100 symmetry adapted cartesian basis functions of A"  symmetry.
 There are   138 symmetry adapted basis functions of A'  symmetry.
 There are    92 symmetry adapted basis functions of A"  symmetry.
   230 basis functions,   306 primitive gaussians,   260 cartesian basis functions
     9 alpha electrons        9 beta electrons
       nuclear repulsion energy        47.6735341947 Hartrees.
 IExCor=    0 DFT=F Ex=HF Corr=None ExCW=0 ScaHFX=  1.000000
 ScaDFX=  1.000000  1.000000  1.000000  1.000000 ScalE2=  1.000000  1.000000
 IRadAn=      5 IRanWt=     -1 IRanGd=            0 ICorTp=0 IEmpDi=  4
 NAtoms=    8 NActive=    8 NUniq=    4 SFac= 4.00D+00 NAtFMM=   60 NAOKFM=F Big=F
 Integral buffers will be    131072 words long.
 Raffenetti 1 integral format.
 Two-electron integral symmetry is turned on.
 Leave Link  301 at Wed Jun 19 08:44:07 2024, MaxMem=  1572864000 cpu:               0.4 elap:               0.1
 (Enter /software/sse/easybuild/prefix/software/Gaussian/16.C.01-avx2-nsc1/g16/l302.exe)
 NPDir=0 NMtPBC=     1 NCelOv=     1 NCel=       1 NClECP=     1 NCelD=      1
         NCelK=      1 NCelE2=     1 NClLst=     1 CellRange=     0.0.
 One-electron integrals computed using PRISM.
 One-electron integral symmetry used in STVInt
 NBasis=   230 RedAO= T EigKep=  3.30D-05  NBF=   138    92
 NBsUse=   230 1.00D-06 EigRej= -1.00D+00 NBFU=   138    92
 Leave Link  302 at Wed Jun 19 08:44:08 2024, MaxMem=  1572864000 cpu:               1.7 elap:               0.2
 (Enter /software/sse/easybuild/prefix/software/Gaussian/16.C.01-avx2-nsc1/g16/l303.exe)
 DipDrv:  MaxL=1.
 Leave Link  303 at Wed Jun 19 08:44:08 2024, MaxMem=  1572864000 cpu:               0.2 elap:               0.0
 (Enter /software/sse/easybuild/prefix/software/Gaussian/16.C.01-avx2-nsc1/g16/l401.exe)
 ExpMin= 2.53D-02 ExpMax= 1.14D+04 ExpMxC= 3.89D+02 IAcc=3 IRadAn=         5 AccDes= 0.00D+00
 Harris functional with IExCor=  205 and IRadAn=       5 diagonalized for initial guess.
 HarFok:  IExCor=  205 AccDes= 0.00D+00 IRadAn=         5 IDoV= 1 UseB2=F ITyADJ=14
 ICtDFT=  3500011 ScaDFX=  1.000000  1.000000  1.000000  1.000000
 FoFCou: FMM=F IPFlag=           0 FMFlag=      100000 FMFlg1=           0
         NFxFlg=           0 DoJE=T BraDBF=F KetDBF=T FulRan=T
         wScrn=  0.000000 ICntrl=       500 IOpCl=  0 I1Cent=   200000004 NGrid=           0
         NMat0=    1 NMatS0=      1 NMatT0=    0 NMatD0=    1 NMtDS0=    0 NMtDT0=    0
 Petite list used in FoFCou.
 Harris En= -95.8721027554321    
 JPrj=0 DoOrth=F DoCkMO=F.
 Initial guess orbital symmetries:
       Occupied  (A1) (A1) (A1) (A1) (E) (E) (A1) (E) (E)
       Virtual   (A1) (A1) (E) (E) (A1) (E) (E) (A1) (E) (E) (A1)
                 (E) (E) (A1) (E) (E) (E) (E) (A1) (E) (E) (A1)
                 (E) (E) (A1) (A2) (A1) (E) (E) (A1) (E) (E) (E)
                 (E) (A1) (E) (E) (A1) (A2) (E) (E) (A1) (E) (E)
                 (E) (E) (A1) (E) (E) (A1) (A1) (E) (E) (E) (E)
                 (A1) (A2) (E) (E) (A1) (E) (E) (A1) (E) (E) (A2)
                 (A1) (E) (E) (A2) (E) (E) (A1) (E) (E) (E) (E)
                 (A1) (E) (E) (E) (E) (E) (E) (A1) (E) (E) (A1)
                 (A2) (E) (E) (A1) (E) (E) (E) (E) (A1) (E) (E)
                 (A1) (A2) (E) (E) (A1) (A2) (E) (E) (A1) (E) (E)
                 (A1) (E) (E) (A1) (E) (E) (A2) (E) (E) (A1) (E)
                 (E) (E) (E) (A1) (E) (E) (A1) (E) (E) (A1) (A2)
                 (E) (E) (A1) (A1) (E) (E) (A1) (E) (E) (A2) (E)
                 (E) (A1) (E) (E) (A1) (E) (E) (E) (E) (A1) (E)
                 (E) (A2) (E) (E) (A2) (E) (E) (E) (E) (A1) (A2)
                 (E) (E) (A1) (A1) (E) (E) (A1) (E) (E) (E) (E)
                 (E) (E) (A1) (A1) (E) (E) (E) (E) (A2) (A1) (E)
                 (E) (A1) (E) (E) (A2) (A1) (E) (E) (A1) (E) (E)
                 (E) (E) (A2) (A1) (E) (E) (A1) (E) (E) (A2) (E)
                 (E) (A1) (E) (E) (A1) (A1) (E) (E) (E) (E) (A1)
                 (A1)
 The electronic state of the initial guess is 1-A1.
 Leave Link  401 at Wed Jun 19 08:44:09 2024, MaxMem=  1572864000 cpu:               1.8 elap:               0.2
 (Enter /software/sse/easybuild/prefix/software/Gaussian/16.C.01-avx2-nsc1/g16/l502.exe)
 Keep R1 ints in memory in symmetry-blocked form, NReq=529703011.
 FoFCou: FMM=F IPFlag=           0 FMFlag=           0 FMFlg1=           0
         NFxFlg=           0 DoJE=F BraDBF=F KetDBF=F FulRan=T
         wScrn=  0.000000 ICntrl=       600 IOpCl=  0 I1Cent=           0 NGrid=           0
         NMat0=    1 NMatS0=  26565 NMatT0=    0 NMatD0=    1 NMtDS0=    0 NMtDT0=    0
 Petite list used in FoFCou.
 Closed shell SCF:
 Using DIIS extrapolation, IDIIS=  1040.
 NGot=  1572864000 LenX=  1395885707 LenY=  1395817666
 Requested convergence on RMS density matrix=1.00D-08 within 128 cycles.
 Requested convergence on MAX density matrix=1.00D-06.
 Requested convergence on             energy=1.00D-06.
 No special actions if energy rises.

 Cycle   1  Pass 1  IDiag  1:
 E= -95.5239182952802    
 DIIS: error= 4.16D-02 at cycle   1 NSaved=   1.
 NSaved= 1 IEnMin= 1 EnMin= -95.5239182952802     IErMin= 1 ErrMin= 4.16D-02
 ErrMax= 4.16D-02  0.00D+00 EMaxC= 1.00D-01 BMatC= 2.06D-01 BMatP= 2.06D-01
 IDIUse=3 WtCom= 5.84D-01 WtEn= 4.16D-01
 Coeff-Com:  0.100D+01
 Coeff-En:   0.100D+01
 Coeff:      0.100D+01
 Gap=     0.624 Goal=   None    Shift=    0.000
 GapD=    0.624 DampG=2.000 DampE=0.500 DampFc=1.0000 IDamp=-1.
 RMSDP=1.34D-03 MaxDP=6.17D-02              OVMax= 9.34D-02

 Cycle   2  Pass 1  IDiag  1:
 E= -95.6077923030728     Delta-E=       -0.083874007793 Rises=F Damp=F
 DIIS: error= 1.04D-02 at cycle   2 NSaved=   2.
 NSaved= 2 IEnMin= 2 EnMin= -95.6077923030728     IErMin= 2 ErrMin= 1.04D-02
 ErrMax= 1.04D-02  0.00D+00 EMaxC= 1.00D-01 BMatC= 1.24D-02 BMatP= 2.06D-01
 IDIUse=3 WtCom= 8.96D-01 WtEn= 1.04D-01
 Coeff-Com:  0.948D-01 0.905D+00
 Coeff-En:   0.000D+00 0.100D+01
 Coeff:      0.849D-01 0.915D+00
 Gap=     0.672 Goal=   None    Shift=    0.000
 RMSDP=4.15D-04 MaxDP=1.94D-02 DE=-8.39D-02 OVMax= 3.21D-02

 Cycle   3  Pass 1  IDiag  1:
 E= -95.6170955470145     Delta-E=       -0.009303243942 Rises=F Damp=F
 DIIS: error= 2.79D-03 at cycle   3 NSaved=   3.
 NSaved= 3 IEnMin= 3 EnMin= -95.6170955470145     IErMin= 3 ErrMin= 2.79D-03
 ErrMax= 2.79D-03  0.00D+00 EMaxC= 1.00D-01 BMatC= 1.12D-03 BMatP= 1.24D-02
 IDIUse=3 WtCom= 9.72D-01 WtEn= 2.79D-02
 Coeff-Com: -0.236D-01 0.188D+00 0.835D+00
 Coeff-En:   0.000D+00 0.000D+00 0.100D+01
 Coeff:     -0.230D-01 0.183D+00 0.840D+00
 Gap=     0.654 Goal=   None    Shift=    0.000
 RMSDP=8.92D-05 MaxDP=4.34D-03 DE=-9.30D-03 OVMax= 7.80D-03

 Cycle   4  Pass 1  IDiag  1:
 E= -95.6181170346699     Delta-E=       -0.001021487655 Rises=F Damp=F
 DIIS: error= 6.63D-04 at cycle   4 NSaved=   4.
 NSaved= 4 IEnMin= 4 EnMin= -95.6181170346699     IErMin= 4 ErrMin= 6.63D-04
 ErrMax= 6.63D-04  0.00D+00 EMaxC= 1.00D-01 BMatC= 2.47D-05 BMatP= 1.12D-03
 IDIUse=3 WtCom= 9.93D-01 WtEn= 6.63D-03
 Coeff-Com: -0.110D-02-0.196D-01-0.482D-02 0.103D+01
 Coeff-En:   0.000D+00 0.000D+00 0.000D+00 0.100D+01
 Coeff:     -0.110D-02-0.194D-01-0.479D-02 0.103D+01
 Gap=     0.654 Goal=   None    Shift=    0.000
 RMSDP=2.46D-05 MaxDP=1.23D-03 DE=-1.02D-03 OVMax= 3.37D-03

 Cycle   5  Pass 1  IDiag  1:
 E= -95.6181576001671     Delta-E=       -0.000040565497 Rises=F Damp=F
 DIIS: error= 1.89D-04 at cycle   5 NSaved=   5.
 NSaved= 5 IEnMin= 5 EnMin= -95.6181576001671     IErMin= 5 ErrMin= 1.89D-04
 ErrMax= 1.89D-04  0.00D+00 EMaxC= 1.00D-01 BMatC= 4.15D-06 BMatP= 2.47D-05
 IDIUse=3 WtCom= 9.98D-01 WtEn= 1.89D-03
 Coeff-Com:  0.226D-02-0.242D-01-0.918D-01 0.145D+00 0.969D+00
 Coeff-En:   0.000D+00 0.000D+00 0.000D+00 0.000D+00 0.100D+01
 Coeff:      0.225D-02-0.242D-01-0.916D-01 0.145D+00 0.969D+00
 Gap=     0.655 Goal=   None    Shift=    0.000
 RMSDP=9.60D-06 MaxDP=3.61D-04 DE=-4.06D-05 OVMax= 8.36D-04

 Cycle   6  Pass 1  IDiag  1:
 E= -95.6181641199366     Delta-E=       -0.000006519769 Rises=F Damp=F
 DIIS: error= 7.55D-05 at cycle   6 NSaved=   6.
 NSaved= 6 IEnMin= 6 EnMin= -95.6181641199366     IErMin= 6 ErrMin= 7.55D-05
 ErrMax= 7.55D-05  0.00D+00 EMaxC= 1.00D-01 BMatC= 2.05D-07 BMatP= 4.15D-06
 IDIUse=1 WtCom= 1.00D+00 WtEn= 0.00D+00
 Coeff-Com:  0.371D-03-0.128D-02-0.887D-02-0.685D-01 0.600D-01 0.102D+01
 Coeff:      0.371D-03-0.128D-02-0.887D-02-0.685D-01 0.600D-01 0.102D+01
 Gap=     0.655 Goal=   None    Shift=    0.000
 RMSDP=2.35D-06 MaxDP=1.21D-04 DE=-6.52D-06 OVMax= 3.80D-04

 Cycle   7  Pass 1  IDiag  1:
 E= -95.6181645115449     Delta-E=       -0.000000391608 Rises=F Damp=F
 DIIS: error= 1.01D-05 at cycle   7 NSaved=   7.
 NSaved= 7 IEnMin= 7 EnMin= -95.6181645115449     IErMin= 7 ErrMin= 1.01D-05
 ErrMax= 1.01D-05  0.00D+00 EMaxC= 1.00D-01 BMatC= 8.14D-09 BMatP= 2.05D-07
 IDIUse=1 WtCom= 1.00D+00 WtEn= 0.00D+00
 Coeff-Com: -0.172D-03 0.142D-02 0.630D-02 0.955D-02-0.591D-01-0.230D+00
 Coeff-Com:  0.127D+01
 Coeff:     -0.172D-03 0.142D-02 0.630D-02 0.955D-02-0.591D-01-0.230D+00
 Coeff:      0.127D+01
 Gap=     0.655 Goal=   None    Shift=    0.000
 RMSDP=5.63D-07 MaxDP=2.44D-05 DE=-3.92D-07 OVMax= 6.86D-05

 Cycle   8  Pass 1  IDiag  1:
 E= -95.6181645306104     Delta-E=       -0.000000019066 Rises=F Damp=F
 DIIS: error= 1.75D-06 at cycle   8 NSaved=   8.
 NSaved= 8 IEnMin= 8 EnMin= -95.6181645306104     IErMin= 8 ErrMin= 1.75D-06
 ErrMax= 1.75D-06  0.00D+00 EMaxC= 1.00D-01 BMatC= 2.47D-10 BMatP= 8.14D-09
 IDIUse=1 WtCom= 1.00D+00 WtEn= 0.00D+00
 Coeff-Com:  0.191D-04-0.193D-03-0.103D-02-0.500D-03 0.981D-02 0.262D-01
 Coeff-Com: -0.305D+00 0.127D+01
 Coeff:      0.191D-04-0.193D-03-0.103D-02-0.500D-03 0.981D-02 0.262D-01
 Coeff:     -0.305D+00 0.127D+01
 Gap=     0.655 Goal=   None    Shift=    0.000
 RMSDP=1.19D-07 MaxDP=3.60D-06 DE=-1.91D-08 OVMax= 1.34D-05

 Cycle   9  Pass 1  IDiag  1:
 E= -95.6181645312056     Delta-E=       -0.000000000595 Rises=F Damp=F
 DIIS: error= 2.49D-07 at cycle   9 NSaved=   9.
 NSaved= 9 IEnMin= 9 EnMin= -95.6181645312056     IErMin= 9 ErrMin= 2.49D-07
 ErrMax= 2.49D-07  0.00D+00 EMaxC= 1.00D-01 BMatC= 4.00D-12 BMatP= 2.47D-10
 IDIUse=1 WtCom= 1.00D+00 WtEn= 0.00D+00
 Coeff-Com: -0.851D-06 0.177D-04 0.969D-04-0.213D-03-0.942D-03 0.190D-02
 Coeff-Com:  0.300D-01-0.259D+00 0.123D+01
 Coeff:     -0.851D-06 0.177D-04 0.969D-04-0.213D-03-0.942D-03 0.190D-02
 Coeff:      0.300D-01-0.259D+00 0.123D+01
 Gap=     0.655 Goal=   None    Shift=    0.000
 RMSDP=1.76D-08 MaxDP=6.78D-07 DE=-5.95D-10 OVMax= 1.62D-06

 Cycle  10  Pass 1  IDiag  1:
 E= -95.6181645312155     Delta-E=       -0.000000000010 Rises=F Damp=F
 DIIS: error= 1.51D-08 at cycle  10 NSaved=  10.
 NSaved=10 IEnMin=10 EnMin= -95.6181645312155     IErMin=10 ErrMin= 1.51D-08
 ErrMax= 1.51D-08  0.00D+00 EMaxC= 1.00D-01 BMatC= 2.24D-14 BMatP= 4.00D-12
 IDIUse=1 WtCom= 1.00D+00 WtEn= 0.00D+00
 Coeff-Com: -0.119D-06 0.497D-06 0.956D-06 0.210D-04-0.735D-05-0.477D-03
 Coeff-Com: -0.138D-03 0.156D-01-0.142D+00 0.113D+01
 Coeff:     -0.119D-06 0.497D-06 0.956D-06 0.210D-04-0.735D-05-0.477D-03
 Coeff:     -0.138D-03 0.156D-01-0.142D+00 0.113D+01
 Gap=     0.655 Goal=   None    Shift=    0.000
 RMSDP=1.06D-09 MaxDP=3.90D-08 DE=-9.95D-12 OVMax= 1.09D-07

 SCF Done:  E(RHF) =  -95.6181645312     A.U. after   10 cycles
            NFock= 10  Conv=0.11D-08     -V/T= 2.0021
 KE= 9.541766618047D+01 PE=-3.130040263053D+02 EE= 7.429466139889D+01
 Leave Link  502 at Wed Jun 19 08:44:14 2024, MaxMem=  1572864000 cpu:              33.0 elap:               5.1
 (Enter /software/sse/easybuild/prefix/software/Gaussian/16.C.01-avx2-nsc1/g16/l801.exe)
 Range of M.O.s used for correlation:     1   230
 NBasis=   230 NAE=     9 NBE=     9 NFC=     0 NFV=     0
 NROrb=    230 NOA=     9 NOB=     9 NVA=   221 NVB=   221

 **** Warning!!: The largest alpha MO coefficient is  0.54681765D+02

 Leave Link  801 at Wed Jun 19 08:44:15 2024, MaxMem=  1572864000 cpu:               0.2 elap:               0.1
 (Enter /software/sse/easybuild/prefix/software/Gaussian/16.C.01-avx2-nsc1/g16/l1101.exe)
 Using compressed storage, NAtomX=     8.
 Will process      9 centers per pass.
 Leave Link 1101 at Wed Jun 19 08:44:15 2024, MaxMem=  1572864000 cpu:               1.1 elap:               0.2
 (Enter /software/sse/easybuild/prefix/software/Gaussian/16.C.01-avx2-nsc1/g16/l1102.exe)
 Symmetrizing basis deriv contribution to polar:
 IMax=3 JMax=2 DiffMx= 0.00D+00
 Leave Link 1102 at Wed Jun 19 08:44:15 2024, MaxMem=  1572864000 cpu:               0.2 elap:               0.0
 (Enter /software/sse/easybuild/prefix/software/Gaussian/16.C.01-avx2-nsc1/g16/l1110.exe)
 Forming Gx(P) for the SCF density, NAtomX=     8.
 Integral derivatives from FoFJK, PRISM(SPDF).
 Do as many integral derivatives as possible in FoFJK.
 G2DrvN: MDV=    1572863040.
 G2DrvN: will do     9 centers at a time, making    1 passes.
 Calling FoFCou, ICntrl=  3107 FMM=F I1Cent=   0 AccDes= 0.00D+00.
 FoFJK:  IHMeth= 1 ICntrl=    3107 DoSepK=F KAlg= 0 I1Cent=           0 FoldK=F
 IRaf=         0 NMat=       1 IRICut=       1 DoRegI=T DoRafI=F ISym2E= 1 IDoP0=0 IntGTp=1.
 FoFCou: FMM=F IPFlag=           0 FMFlag=      100000 FMFlg1=           0
         NFxFlg=           0 DoJE=F BraDBF=F KetDBF=F FulRan=T
         wScrn=  0.000000 ICntrl=      3107 IOpCl=  0 I1Cent=           0 NGrid=           0
         NMat0=    1 NMatS0=      1 NMatT0=    0 NMatD0=    1 NMtDS0=    0 NMtDT0=    0
 Petite list used in FoFCou.
 End of G2Drv F.D. properties file   721 does not exist.
 End of G2Drv F.D. properties file   722 does not exist.
 End of G2Drv F.D. properties file   788 does not exist.
 Leave Link 1110 at Wed Jun 19 08:44:17 2024, MaxMem=  1572864000 cpu:              19.2 elap:               2.4
 (Enter /software/sse/easybuild/prefix/software/Gaussian/16.C.01-avx2-nsc1/g16/l1002.exe)
 Minotr:  Closed shell wavefunction.
          IDoAtm=11111111
          Direct CPHF calculation.
          Differentiating once with respect to electric field.
                with respect to dipole field.
          Differentiating once with respect to nuclear coordinates.
          Using symmetry in CPHF.
          Requested convergence is 1.0D-08 RMS, and 1.0D-07 maximum.
          Secondary convergence is 1.0D-12 RMS, and 1.0D-12 maximum.
          NewPWx=T KeepS1=F KeepF1=F KeepIn=T MapXYZ=F SortEE=F KeepMc=T.
 Keep R1 ints in memory in symmetry-blocked form, NReq=529704617.
 FoFCou: FMM=F IPFlag=           0 FMFlag=           0 FMFlg1=           0
         NFxFlg=           0 DoJE=F BraDBF=F KetDBF=F FulRan=T
         wScrn=  0.000000 ICntrl=       600 IOpCl=  0 I1Cent=           0 NGrid=           0
         NMat0=    1 NMatS0=  26565 NMatT0=    0 NMatD0=    1 NMtDS0=    0 NMtDT0=    0
 Petite list used in FoFCou.
          MDV=    1572864000 using IRadAn=       1.
          Solving linear equations simultaneously, MaxMat=       0.
          There are    15 degrees of freedom in the 1st order CPHF.  IDoFFX=4 NUNeed=    15.
     15 vectors produced by pass  0 Test12= 1.33D-14 6.67D-09 XBig12= 4.38D+00 7.54D-01.
 AX will form    15 AO Fock derivatives at one time.
     15 vectors produced by pass  1 Test12= 1.33D-14 6.67D-09 XBig12= 8.68D-02 5.92D-02.
     15 vectors produced by pass  2 Test12= 1.33D-14 6.67D-09 XBig12= 1.09D-03 6.85D-03.
     15 vectors produced by pass  3 Test12= 1.33D-14 6.67D-09 XBig12= 1.16D-05 5.41D-04.
     15 vectors produced by pass  4 Test12= 1.33D-14 6.67D-09 XBig12= 9.73D-08 7.24D-05.
     15 vectors produced by pass  5 Test12= 1.33D-14 6.67D-09 XBig12= 6.92D-10 4.70D-06.
     14 vectors produced by pass  6 Test12= 1.33D-14 6.67D-09 XBig12= 4.30D-12 3.48D-07.
      3 vectors produced by pass  7 Test12= 1.33D-14 6.67D-09 XBig12= 2.24D-14 2.41D-08.
 InvSVY:  IOpt=1 It=  1 EMax= 3.11D-15
 Solved reduced A of dimension   107 with    15 vectors.
 FullF1:  Do perturbations      1 to      15.
 Isotropic polarizability for W=    0.000000       19.73 Bohr**3.
 End of Minotr F.D. properties file   721 does not exist.
 End of Minotr F.D. properties file   722 does not exist.
 End of Minotr F.D. properties file   788 does not exist.
 Leave Link 1002 at Wed Jun 19 08:44:24 2024, MaxMem=  1572864000 cpu:              53.6 elap:               6.8
 (Enter /software/sse/easybuild/prefix/software/Gaussian/16.C.01-avx2-nsc1/g16/l601.exe)
 Copying SCF densities to generalized density rwf, IOpCl= 0 IROHF=0.
 SCF density gives NOpUse=  6 NOpAll=  6.

 **********************************************************************

            Population analysis using the SCF Density.

 **********************************************************************

 Orbital symmetries:
 BldTbl:  Degeneracy threshold= 1.00D-02
       Occupied  (A1) (A1) (A1) (A1) (E) (E) (A1) (E) (E)
       Virtual   (A1) (E) (E) (A1) (E) (E) (A1) (E) (E) (A1) (E)
                 (E) (A1) (E) (E) (A1) (E) (E) (A1) (E) (E) (A1)
                 (A2) (A1) (E) (E) (E) (E) (A1) (E) (E) (A1) (A2)
                 (E) (E) (A1) (E) (E) (A1) (E) (E) (A1) (E) (E)
                 (E) (E) (E) (E) (A1) (A1) (E) (E) (A1) (E) (E)
                 (A1) (A2) (E) (E) (A1) (A2) (E) (E) (A1) (E) (E)
                 (E) (E) (A1) (A2) (E) (E) (E) (E) (A1) (E) (E)
                 (A1) (E) (E) (E) (E) (E) (E) (A1) (E) (E) (A2)
                 (A1) (E) (E) (E) (E) (A1) (E) (E) (A1) (E) (E)
                 (A1) (A2) (E) (E) (A2) (A1) (A1) (E) (E) (E) (E)
                 (A1) (A1) (E) (E) (E) (E) (A2) (E) (E) (A1) (E)
                 (E) (E) (E) (A1) (E) (E) (A1) (E) (E) (A2) (A1)
                 (E) (E) (A1) (A1) (E) (E) (A1) (E) (E) (A2) (E)
                 (E) (E) (E) (A1) (A1) (E) (E) (E) (E) (E) (E)
                 (A1) (A2) (A2) (E) (E) (E) (E) (A1) (E) (E) (A2)
                 (E) (E) (A1) (A1) (E) (E) (A1) (E) (E) (E) (E)
                 (E) (E) (A1) (A1) (E) (E) (A2) (E) (E) (E) (E)
                 (A1) (A1) (E) (E) (A2) (A1) (E) (E) (A1) (E) (E)
                 (E) (E) (A2) (A1) (E) (E) (E) (E) (A1) (A2) (E)
                 (E) (A1) (E) (E) (A1) (A1) (E) (E) (E) (E) (A1)
                 (A1)
 The electronic state is 1-A1.
 Alpha  occ. eigenvalues --  -15.91187 -11.49311  -1.52317  -1.17527  -0.98331
 Alpha  occ. eigenvalues --   -0.98331  -0.86297  -0.78275  -0.78275
 Alpha virt. eigenvalues --   -0.12772  -0.08631  -0.08631  -0.08443  -0.04769
 Alpha virt. eigenvalues --   -0.04769  -0.04366  -0.01860  -0.01860  -0.01573
 Alpha virt. eigenvalues --    0.00586   0.00586   0.00731   0.03938   0.03938
 Alpha virt. eigenvalues --    0.04305   0.07393   0.07393   0.09049   0.10766
 Alpha virt. eigenvalues --    0.10766   0.15435   0.15514   0.15811   0.16958
 Alpha virt. eigenvalues --    0.16958   0.20604   0.20604   0.20671   0.23152
 Alpha virt. eigenvalues --    0.23152   0.23685   0.24329   0.24748   0.24748
 Alpha virt. eigenvalues --    0.25275   0.27023   0.27023   0.29641   0.32454
 Alpha virt. eigenvalues --    0.32454   0.32962   0.34105   0.34105   0.39743
 Alpha virt. eigenvalues --    0.39743   0.40816   0.40816   0.42069   0.56626
 Alpha virt. eigenvalues --    0.58411   0.58411   0.59446   0.62116   0.62116
 Alpha virt. eigenvalues --    0.63661   0.65255   0.68006   0.68006   0.71623
 Alpha virt. eigenvalues --    0.72671   0.72931   0.72931   0.73547   0.74395
 Alpha virt. eigenvalues --    0.74395   0.78462   0.78462   0.80623   0.80977
 Alpha virt. eigenvalues --    0.87942   0.87942   0.88409   0.88409   0.88992
 Alpha virt. eigenvalues --    0.95047   0.95047   0.95544   0.97777   0.97777
 Alpha virt. eigenvalues --    1.01638   1.01638   1.05019   1.05019   1.06645
 Alpha virt. eigenvalues --    1.08581   1.08581   1.11455   1.13213   1.13768
 Alpha virt. eigenvalues --    1.13768   1.27268   1.27268   1.28087   1.34979
 Alpha virt. eigenvalues --    1.34979   1.36256   1.40175   1.40175   1.42540
 Alpha virt. eigenvalues --    1.42560   1.45224   1.45224   1.50033   1.50891
 Alpha virt. eigenvalues --    1.57487   1.57999   1.57999   1.62941   1.62941
 Alpha virt. eigenvalues --    1.70669   1.77796   1.77808   1.77808   1.78436
 Alpha virt. eigenvalues --    1.78436   1.82240   1.85577   1.85577   1.90927
 Alpha virt. eigenvalues --    1.99272   1.99272   2.00951   2.00951   2.10157
 Alpha virt. eigenvalues --    2.18541   2.18541   2.21946   2.26703   2.26703
 Alpha virt. eigenvalues --    2.33260   2.36675   2.40839   2.40839   2.72451
 Alpha virt. eigenvalues --    2.95342   3.13132   3.13132   3.20675   3.35565
 Alpha virt. eigenvalues --    3.35565   3.39174   3.40290   3.40290   3.51184
 Alpha virt. eigenvalues --    3.51184   3.51914   3.60992   3.68523   3.68523
 Alpha virt. eigenvalues --    3.74406   3.74406   3.83404   3.83404   3.83755
 Alpha virt. eigenvalues --    3.84321   3.88647   3.89308   3.89308   3.97752
 Alpha virt. eigenvalues --    3.97752   4.06394   4.07741   4.07741   4.14984
 Alpha virt. eigenvalues --    4.19995   4.19995   4.28373   4.29320   4.32145
 Alpha virt. eigenvalues --    4.32145   4.38095   4.41997   4.41997   4.46743
 Alpha virt. eigenvalues --    4.46743   4.55785   4.55785   4.60776   4.62435
 Alpha virt. eigenvalues --    4.66610   4.66610   4.68789   4.74397   4.74397
 Alpha virt. eigenvalues --    4.82923   4.82923   4.85738   4.91714   4.96712
 Alpha virt. eigenvalues --    4.96712   5.02455   5.18388   5.20913   5.20913
 Alpha virt. eigenvalues --    5.27115   5.51505   5.51505   5.54171   5.54171
 Alpha virt. eigenvalues --    5.56166   5.59501   5.77310   5.77310   5.84337
 Alpha virt. eigenvalues --    5.84337   5.89224   6.10922   6.18800   6.18800
 Alpha virt. eigenvalues --    6.26646   6.45711   6.45711   6.47220   6.60659
 Alpha virt. eigenvalues --    6.83782   6.83782   7.50988   7.50988  17.28622
 Alpha virt. eigenvalues --   18.61264
          Condensed to atoms (all electrons):
               1          2          3          4          5          6
     1  N    5.519515   0.168857   0.404563   0.404563   0.404563   0.001525
     2  C    0.168857   5.555310  -0.011549  -0.011549  -0.011549   0.361631
     3  H    0.404563  -0.011549   0.476228  -0.021025  -0.021025   0.002927
     4  H    0.404563  -0.011549  -0.021025   0.476228  -0.021025   0.002927
     5  H    0.404563  -0.011549  -0.021025  -0.021025   0.476228  -0.005057
     6  H    0.001525   0.361631   0.002927   0.002927  -0.005057   0.222884
     7  H    0.001525   0.361631   0.002927  -0.005057   0.002927   0.012413
     8  H    0.001525   0.361631  -0.005057   0.002927   0.002927   0.012413
               7          8
     1  N    0.001525   0.001525
     2  C    0.361631   0.361631
     3  H    0.002927  -0.005057
     4  H   -0.005057   0.002927
     5  H    0.002927   0.002927
     6  H    0.012413   0.012413
     7  H    0.222884   0.012413
     8  H    0.012413   0.222884
 Mulliken charges:
               1
     1  N    0.093365
     2  C   -0.774413
     3  H    0.172011
     4  H    0.172011
     5  H    0.172011
     6  H    0.388338
     7  H    0.388338
     8  H    0.388338
 Sum of Mulliken charges =   1.00000
 Mulliken charges with hydrogens summed into heavy atoms:
               1
     1  N    0.609398
     2  C    0.390602
 APT charges:
               1
     1  N   -0.308735
     2  C    0.355775
     3  H    0.266968
     4  H    0.266968
     5  H    0.266968
     6  H    0.050685
     7  H    0.050685
     8  H    0.050685
 Sum of APT charges =   1.00000
 APT charges with hydrogens summed into heavy atoms:
               1
     1  N    0.492169
     2  C    0.507831
 DipInt: DoE/N= T F RetVal/Mat= T F Init=T NMatP=  1 IDeriv=0 Min/MaxMlt=  0  4
 Entering OneElI...
 OneElI was handed  1572688905 working-precision words.
 Multipole integrals L=0 to 4 MinM= 0 MaxM= 0.
 Requested accuracy = 0.1000D-12
 ShPair: Thresh= 1.00D-13 NBox=     0 BxSize= 0.00D+00 RnKept= 5.65D+00
         NSMCal=                 3403 NSMKep=                3403
 PrmmSu-InSpLW:  IPartL=    0 NPrtUS=    1 NPrtUL=    1 DoSpLW=F IThBeg=    0 IThEnd=    0 NThAct=    1.
 PrSmSu:  IncTry=   512 NBBP=           3403 NTPThr=   100 NPartT=    1 Incr=          34 LDynOK=F GPUOK=F.
 PrsmSu:  NPrtUS=   1 ThrOK=F IAlg=2 LenDen=           0 ISkipM=0 DoSpLW=F IThBeg=    0 IThEnd=    0.
 Prism:   IPart=     0 DynPar=F LinDyn=F Incr=          34.
 PRISM was handed  1572471997 working-precision words and  3403 shell-pairs
 IPart=  0 NShTot=        3403 NBatch=          56 AvBLen=        60.8
 PrsmSu-ThDecC:  IPartSL=    0    0 NPrtUSL=    1    1 IThBeg=    0 IThEnd=    0 CPU=   -1 GPU=   -1 NThAct=    1.
 PrSmSu:  NxtVal=             35.
 Electronic moments (au):
        -18.00000000          0.00000000          0.00000000          0.84894223
        -18.12384398        -18.12384398        -58.22062072         -0.00000000
         -0.00000000         -0.00000000          0.00000000          1.83276276
         16.14694962          0.00000000         -1.83276276          6.07837630
          0.00000000          0.00000000          6.07837630          0.00000000
        -74.66682864        -74.66682864       -338.10490034         -0.00000000
          0.00000000         -0.00000000        -13.40110406         -0.00000000
         -0.00000000        -24.88894288        -75.60004741        -75.60004741
         13.40110406         -0.00000000         -0.00000000
 Electronic spatial extent (au):  <R**2>=             94.4683
 DipInt: DoE/N= F T RetVal/Mat= T F Init=T NMatP=  1 IDeriv=0 Min/MaxMlt=  0  4
 Nuclear    moments (au):
         19.00000000         -0.00000000         -0.00000000          0.00000000
         10.58605512         10.58605512         53.20223771          0.00000000
          0.00000000          0.00000000         -0.00000000         -1.18945613
         -8.11164965         -0.00000000          1.18945613         -2.33596724
         -0.00000000         -0.00000000         -2.33596724         -0.00000000
         28.19443281         28.19443281        173.90259873         -0.00000000
         -0.00000000          0.00000000         21.07900426          0.00000000
          0.00000000          9.39814427         47.28844186         47.28844186
        -21.07900426          0.00000000          0.00000000
 Total      moments (au):
          1.00000000         -0.00000000         -0.00000000          0.84894223
         -7.53778886         -7.53778886         -5.01838301          0.00000000
          0.00000000          0.00000000          0.00000000          0.64330662
          8.03529997          0.00000000         -0.64330662          3.74240906
         -0.00000000          0.00000000          3.74240906         -0.00000000
        -46.47239583        -46.47239583       -164.20230161         -0.00000000
         -0.00000000          0.00000000          7.67790020          0.00000000
          0.00000000        -15.49079861        -28.31160555        -28.31160555
         -7.67790020          0.00000000          0.00000000
 Charge=              1.0000 electrons
 Dipole moment (field-independent basis, Debye):
    X=             -0.0000    Y=             -0.0000    Z=              2.1578  Tot=              2.1578
 Quadrupole moment (field-independent basis, Debye-Ang):
   XX=            -10.1386   YY=            -10.1386   ZZ=             -6.7499
   XY=              0.0000   XZ=              0.0000   YZ=              0.0000
 Traceless Quadrupole moment (field-independent basis, Debye-Ang):
   XX=             -1.1296   YY=             -1.1296   ZZ=              2.2591
   XY=              0.0000   XZ=              0.0000   YZ=              0.0000
 Octapole moment (field-independent basis, Debye-Ang**2):
  XXX=              0.0000  YYY=              0.4579  ZZZ=              5.7192  XYY=              0.0000
  XXY=             -0.4579  XXZ=              2.6637  XZZ=             -0.0000  YZZ=              0.0000
  YYZ=              2.6637  XYZ=             -0.0000
 Hexadecapole moment (field-independent basis, Debye-Ang**3):
 XXXX=            -17.5037 YYYY=            -17.5037 ZZZZ=            -61.8465 XXXY=             -0.0000
 XXXZ=             -0.0000 YYYX=              0.0000 YYYZ=              2.8919 ZZZX=              0.0000
 ZZZY=              0.0000 XXYY=             -5.8346 XXZZ=            -10.6635 YYZZ=            -10.6635
 XXYZ=             -2.8919 YYXZ=              0.0000 ZZXY=              0.0000
 N-N= 4.767353419471D+01 E-N=-3.130040265538D+02  KE= 9.541766618047D+01
 Symmetry A'   KE= 9.054464520621D+01
 Symmetry A"   KE= 4.873020974272D+00
 SetAtRh:  ITypeU=  23 NETotI=      -1 ICharg=  0 NETot=      19.
 StAtR1:  I=    1 I1=    1 IA=  7 C=   7.0 OKShel=TTT
                                                  SSP
                                                  223
 StAtR1:  I=    2 I1=    2 IA=  6 C=   6.0 OKShel=TTT
                                                  SSP
                                                  222
 StAtR1:  I=    3 I1=    3 IA=  1 C=   1.0 OKShel=T
                                                  S
                                                  1
 StAtR1:  I=    4 I1=    4 IA=  1 C=   1.0 OKShel=T
                                                  S
                                                  1
 StAtR1:  I=    5 I1=    5 IA=  1 C=   1.0 OKShel=T
                                                  S
                                                  1
 StAtR1:  I=    6 I1=    6 IA=  1 C=   1.0 OKShel=T
                                                  S
                                                  1
 StAtR1:  I=    7 I1=    7 IA=  1 C=   1.0 OKShel=T
                                                  S
                                                  1
 StAtR1:  I=    8 I1=    8 IA=  1 C=   1.0 OKShel=T
                                                  S
                                                  1
          I=    1 IA=  7 I1=    1 NAtG=22 NE=   7.000 C=   7.000 Err= 6.08D-13
          I=    2 IA=  6 I1=    2 NAtG=23 NE=   6.000 C=   6.000 Err= 1.75D-11
          I=    3 IA=  1 I1=    3 NAtG=20 NE=   1.000 C=   1.000 Err= 2.80D-12
          I=    4 IA=  1 I1=    4 NAtG=20 NE=   1.000 C=   1.000 Err= 2.80D-12
          I=    5 IA=  1 I1=    5 NAtG=20 NE=   1.000 C=   1.000 Err= 2.80D-12
          I=    6 IA=  1 I1=    6 NAtG=20 NE=   1.000 C=   1.000 Err= 2.80D-12
          I=    7 IA=  1 I1=    7 NAtG=20 NE=   1.000 C=   1.000 Err= 2.80D-12
          I=    8 IA=  1 I1=    8 NAtG=20 NE=   1.000 C=   1.000 Err= 2.80D-12
 Pruned (  99, 590) grid will be used in numerical quadrature.
 IPart=  0 IRanGd=          0 ScrnBf=T ScrnGd=T RCrit=4.00D+00 DoMicB=T.
 Pruned (  99, 590) grid will be used in numerical quadrature.
 CutRad = 1000.00    CtRdIn =    0.00    XCrit =  15.00   ICut = 0
 Pruned (  99, 590) grid will be used in numerical quadrature.
 IPart=  2 IRanGd=          0 ScrnBf=T ScrnGd=T RCrit=4.00D+00 DoMicB=T.
 CutRad = 1000.00    CtRdIn =    0.00    XCrit =  15.00   ICut = 0
 Pruned (  99, 590) grid will be used in numerical quadrature.
 IPart=  6 IRanGd=          0 ScrnBf=T ScrnGd=T RCrit=4.00D+00 DoMicB=T.
 CutRad = 1000.00    CtRdIn =    0.00    XCrit =  15.00   ICut = 0
 Pruned (  99, 590) grid will be used in numerical quadrature.
 IPart=  5 IRanGd=          0 ScrnBf=T ScrnGd=T RCrit=4.00D+00 DoMicB=T.
 CutRad = 1000.00    CtRdIn =    0.00    XCrit =  15.00   ICut = 0
 IPart=  0 Atom number   1 atomic number  7 has       23416 grid points.
 Pruned (  99, 590) grid will be used in numerical quadrature.
 Pruned (  99, 590) grid will be used in numerical quadrature.
 IPart=  0 Atom   1 batch    1 overlaps    8 atoms,    82 shells and     8 DB shells.   NGrid=      2408
 IPart=  2 Atom number   1 atomic number  7 has       23416 grid points.
 IPart=  4 IRanGd=          0 ScrnBf=T ScrnGd=T RCrit=4.00D+00 DoMicB=T.
 CutRad = 1000.00    CtRdIn =    0.00    XCrit =  15.00   ICut = 0
 Pruned (  99, 590) grid will be used in numerical quadrature.
 IPart=  2 Atom   1 batch    2 overlaps    8 atoms,    82 shells and     8 DB shells.   NGrid=      2522
 Symmetry reduced    86 angular points to    86 for atom    1.
 Symmetry reduced   194 angular points to   194 for atom    1.
 IPart=  3 IRanGd=          0 ScrnBf=T ScrnGd=T RCrit=4.00D+00 DoMicB=T.
 CutRad = 1000.00    CtRdIn =    0.00    XCrit =  15.00   ICut = 0
 Pruned (  99, 590) grid will be used in numerical quadrature.
 Pruned (  99, 590) grid will be used in numerical quadrature.
 Pruned (  99, 590) grid will be used in numerical quadrature.
 IPart=  6 Atom number   1 atomic number  7 has       23416 grid points.
 IPart=  5 Atom number   1 atomic number  7 has       23416 grid points.
 IPart=  1 IRanGd=          0 ScrnBf=T ScrnGd=T RCrit=4.00D+00 DoMicB=T.
 IPart=  6 Atom   1 batch    3 overlaps    8 atoms,    82 shells and     8 DB shells.   NGrid=      2114
 CutRad = 1000.00    CtRdIn =    0.00    XCrit =  15.00   ICut = 0
 IPart=  5 Atom   1 batch    4 overlaps    8 atoms,    82 shells and     8 DB shells.   NGrid=      1180
 Symmetry reduced   302 angular points to   302 for atom    1.
 Symmetry reduced   590 angular points to   590 for atom    1.
 Pruned (  99, 590) grid will be used in numerical quadrature.
 Pruned (  99, 590) grid will be used in numerical quadrature.
 IPart=  4 Atom number   1 atomic number  7 has       23416 grid points.
 IPart=  3 Atom number   1 atomic number  7 has       23416 grid points.
 IPart=  4 Atom   1 batch    5 overlaps    8 atoms,    82 shells and     8 DB shells.   NGrid=      1180
 IPart=  3 Atom   1 batch    6 overlaps    8 atoms,    82 shells and     8 DB shells.   NGrid=      1180
 Symmetry reduced   590 angular points to   590 for atom    1.
 Symmetry reduced   590 angular points to   590 for atom    1.
 Pruned (  99, 590) grid will be used in numerical quadrature.
 IPart=  7 IRanGd=          0 ScrnBf=T ScrnGd=T RCrit=4.00D+00 DoMicB=T.
 CutRad = 1000.00    CtRdIn =    0.00    XCrit =  15.00   ICut = 0
 Pruned (  99, 590) grid will be used in numerical quadrature.
 IPart=  1 Atom number   1 atomic number  7 has       23416 grid points.
 IPart=  1 Atom   1 batch    7 overlaps    8 atoms,    82 shells and     8 DB shells.   NGrid=      1180
 Symmetry reduced   590 angular points to   590 for atom    1.
 Pruned (  99, 590) grid will be used in numerical quadrature.
 IPart=  7 Atom number   1 atomic number  7 has       23416 grid points.
 IPart=  7 Atom   1 batch    8 overlaps    8 atoms,    82 shells and     8 DB shells.   NGrid=      1180
 Symmetry reduced   590 angular points to   590 for atom    1.
 IPart=  5 Atom   1 batch    9 overlaps    8 atoms,    82 shells and     8 DB shells.   NGrid=      1180
 IPart=  4 Atom   1 batch   11 overlaps    8 atoms,    82 shells and     8 DB shells.   NGrid=      1180
 IPart=  1 Atom   1 batch   12 overlaps    8 atoms,    81 shells and     8 DB shells.   NGrid=       590
 IPart=  3 Atom   1 batch   10 overlaps    8 atoms,    82 shells and     8 DB shells.   NGrid=      1180
 IPart=  7 Atom   1 batch   13 overlaps    8 atoms,    81 shells and     8 DB shells.   NGrid=       604
 Symmetry reduced   302 angular points to   302 for atom    1.
 IPart=  1 Atom   1 batch   14 overlaps    8 atoms,    81 shells and     8 DB shells.   NGrid=       604
 Symmetry reduced   302 angular points to   302 for atom    1.
 IPart=  7 Atom   1 batch   15 overlaps    8 atoms,    79 shells and     8 DB shells.   NGrid=       604
 IPart=  0 Atom   1 batch   16 overlaps    8 atoms,    76 shells and     8 DB shells.   NGrid=       604
 Symmetry reduced   302 angular points to   302 for atom    1.
 IPart=  6 Atom   1 batch   17 overlaps    8 atoms,    70 shells and     8 DB shells.   NGrid=       604
 IPart=  4 Atom   1 batch   18 overlaps    8 atoms,    55 shells and     8 DB shells.   NGrid=       604
 Symmetry reduced   302 angular points to   302 for atom    1.
 IPart=  5 Atom   1 batch   19 overlaps    8 atoms,    44 shells and     8 DB shells.   NGrid=       604
 Symmetry reduced   302 angular points to   302 for atom    1.
 IPart=  3 Atom   1 batch   20 overlaps    8 atoms,    28 shells and     7 DB shells.   NGrid=       604
 Symmetry reduced   302 angular points to   302 for atom    1.
 IPart=  7 Atom   1 batch   21 overlaps    8 atoms,    17 shells and     3 DB shells.   NGrid=       604
 IPart=  0 Atom   1 batch   22 overlaps    8 atoms,     8 shells and     0 DB shells.   NGrid=       604
 IPart=  1 Atom   1 batch   23 overlaps    8 atoms,     3 shells and     0 DB shells.   NGrid=       302
 Pruned (  99, 590) grid will be used in numerical quadrature.
 IPart=  3 Atom number   2 atomic number  6 has       23114 grid points.
 IPart=  3 Atom   2 batch    1 overlaps    8 atoms,    82 shells and     8 DB shells.   NGrid=      2408
 Symmetry reduced    86 angular points to    86 for atom    2.
 Pruned (  99, 590) grid will be used in numerical quadrature.
 IPart=  6 Atom number   2 atomic number  6 has       23114 grid points.
 IPart=  6 Atom   2 batch    2 overlaps    8 atoms,    82 shells and     8 DB shells.   NGrid=      2522
 Pruned (  99, 590) grid will be used in numerical quadrature.
 Symmetry reduced   194 angular points to   194 for atom    2.
 IPart=  2 Atom number   2 atomic number  6 has       23114 grid points.
 IPart=  2 Atom   2 batch    3 overlaps    8 atoms,    82 shells and     8 DB shells.   NGrid=      2114
 Symmetry reduced   302 angular points to   302 for atom    2.
 Pruned (  99, 590) grid will be used in numerical quadrature.
 IPart=  1 Atom number   2 atomic number  6 has       23114 grid points.
 IPart=  1 Atom   2 batch    4 overlaps    8 atoms,    82 shells and     8 DB shells.   NGrid=      1180
 Symmetry reduced   590 angular points to   590 for atom    2.
 Pruned (  99, 590) grid will be used in numerical quadrature.
 IPart=  7 Atom number   2 atomic number  6 has       23114 grid points.
 IPart=  7 Atom   2 batch    5 overlaps    8 atoms,    82 shells and     8 DB shells.   NGrid=      1180
 Symmetry reduced   590 angular points to   590 for atom    2.
 Pruned (  99, 590) grid will be used in numerical quadrature.
 IPart=  0 Atom number   2 atomic number  6 has       23114 grid points.
 IPart=  0 Atom   2 batch    6 overlaps    8 atoms,    82 shells and     8 DB shells.   NGrid=      1180
 Symmetry reduced   590 angular points to   590 for atom    2.
 Pruned (  99, 590) grid will be used in numerical quadrature.
 IPart=  5 Atom number   2 atomic number  6 has       23114 grid points.
 IPart=  5 Atom   2 batch    7 overlaps    8 atoms,    82 shells and     8 DB shells.   NGrid=      1180
 Symmetry reduced   590 angular points to   590 for atom    2.
 Pruned (  99, 590) grid will be used in numerical quadrature.
 IPart=  4 Atom number   2 atomic number  6 has       23114 grid points.
 IPart=  4 Atom   2 batch    8 overlaps    8 atoms,    82 shells and     8 DB shells.   NGrid=      1180
 Symmetry reduced   590 angular points to   590 for atom    2.
 IPart=  1 Atom   2 batch    9 overlaps    8 atoms,    82 shells and     8 DB shells.   NGrid=      1180
 IPart=  0 Atom   2 batch   10 overlaps    8 atoms,    82 shells and     8 DB shells.   NGrid=      1180
 IPart=  7 Atom   2 batch   11 overlaps    8 atoms,    81 shells and     8 DB shells.   NGrid=      1180
 IPart=  5 Atom   2 batch   12 overlaps    8 atoms,    81 shells and     8 DB shells.   NGrid=       590
 IPart=  4 Atom   2 batch   13 overlaps    8 atoms,    81 shells and     8 DB shells.   NGrid=       604
 Symmetry reduced   302 angular points to   302 for atom    2.
 IPart=  5 Atom   2 batch   14 overlaps    8 atoms,    81 shells and     8 DB shells.   NGrid=       604
 Symmetry reduced   302 angular points to   302 for atom    2.
 IPart=  4 Atom   2 batch   15 overlaps    8 atoms,    77 shells and     8 DB shells.   NGrid=       604
 IPart=  2 Atom   2 batch   16 overlaps    8 atoms,    68 shells and     8 DB shells.   NGrid=       604
 IPart=  7 Atom   2 batch   17 overlaps    8 atoms,    57 shells and     8 DB shells.   NGrid=       604
 Symmetry reduced   302 angular points to   302 for atom    2.
 IPart=  3 Atom   2 batch   18 overlaps    8 atoms,    46 shells and     8 DB shells.   NGrid=       604
 Symmetry reduced   302 angular points to   302 for atom    2.
 IPart=  0 Atom   2 batch   19 overlaps    8 atoms,    31 shells and     8 DB shells.   NGrid=       604
 Symmetry reduced   302 angular points to   302 for atom    2.
 IPart=  4 Atom   2 batch   20 overlaps    8 atoms,    23 shells and     3 DB shells.   NGrid=       604
 IPart=  1 Atom   2 batch   21 overlaps    8 atoms,    10 shells and     0 DB shells.   NGrid=       604
 IPart=  5 Atom   2 batch   22 overlaps    8 atoms,     6 shells and     0 DB shells.   NGrid=       604
 Symmetry reduced   302 angular points to   302 for atom    2.
 Pruned (  99, 590) grid will be used in numerical quadrature.
 IPart=  0 Atom number   3 atomic number  1 has       23164 grid points.
 IPart=  0 Atom   3 batch    1 overlaps    8 atoms,    81 shells and     8 DB shells.   NGrid=      2838
 Symmetry reduced    86 angular points to    86 for atom    3.
 Pruned (  99, 590) grid will be used in numerical quadrature.
 Pruned (  99, 590) grid will be used in numerical quadrature.
 IPart=  3 Atom number   3 atomic number  1 has       23164 grid points.
 IPart=  4 Atom number   3 atomic number  1 has       23164 grid points.
 IPart=  3 Atom   3 batch    2 overlaps    8 atoms,    82 shells and     8 DB shells.   NGrid=      1552
 IPart=  4 Atom   3 batch    3 overlaps    8 atoms,    82 shells and     8 DB shells.   NGrid=      2416
 Symmetry reduced   194 angular points to   194 for atom    3.
 Symmetry reduced   302 angular points to   302 for atom    3.
 Pruned (  99, 590) grid will be used in numerical quadrature.
 IPart=  5 Atom number   3 atomic number  1 has       23164 grid points.
 IPart=  5 Atom   3 batch    4 overlaps    8 atoms,    82 shells and     8 DB shells.   NGrid=      1180
 Symmetry reduced   590 angular points to   590 for atom    3.
 Pruned (  99, 590) grid will be used in numerical quadrature.
 IPart=  1 Atom number   3 atomic number  1 has       23164 grid points.
 IPart=  1 Atom   3 batch    5 overlaps    8 atoms,    82 shells and     8 DB shells.   NGrid=      1180
 Symmetry reduced   590 angular points to   590 for atom    3.
 Pruned (  99, 590) grid will be used in numerical quadrature.
 IPart=  6 Atom number   3 atomic number  1 has       23164 grid points.
 IPart=  6 Atom   3 batch    6 overlaps    8 atoms,    82 shells and     8 DB shells.   NGrid=      1180
 Symmetry reduced   590 angular points to   590 for atom    3.
 Pruned (  99, 590) grid will be used in numerical quadrature.
 IPart=  2 Atom number   3 atomic number  1 has       23164 grid points.
 IPart=  2 Atom   3 batch    7 overlaps    8 atoms,    82 shells and     8 DB shells.   NGrid=      1180
 Symmetry reduced   590 angular points to   590 for atom    3.
 Pruned (  99, 590) grid will be used in numerical quadrature.
 IPart=  7 Atom number   3 atomic number  1 has       23164 grid points.
 IPart=  7 Atom   3 batch    8 overlaps    8 atoms,    82 shells and     8 DB shells.   NGrid=      1180
 Symmetry reduced   590 angular points to   590 for atom    3.
 IPart=  5 Atom   3 batch    9 overlaps    8 atoms,    82 shells and     8 DB shells.   NGrid=      1180
 IPart=  1 Atom   3 batch   10 overlaps    8 atoms,    82 shells and     8 DB shells.   NGrid=      1180
 IPart=  6 Atom   3 batch   11 overlaps    8 atoms,    82 shells and     8 DB shells.   NGrid=      1180
 IPart=  2 Atom   3 batch   12 overlaps    8 atoms,    82 shells and     8 DB shells.   NGrid=      1180
 IPart=  7 Atom   3 batch   13 overlaps    8 atoms,    82 shells and     8 DB shells.   NGrid=       604
 Symmetry reduced   302 angular points to   302 for atom    3.
 IPart=  3 Atom   3 batch   14 overlaps    8 atoms,    81 shells and     8 DB shells.   NGrid=       604
 Symmetry reduced   302 angular points to   302 for atom    3.
 IPart=  7 Atom   3 batch   15 overlaps    8 atoms,    78 shells and     8 DB shells.   NGrid=       604
 IPart=  3 Atom   3 batch   16 overlaps    8 atoms,    74 shells and     8 DB shells.   NGrid=       604
 IPart=  4 Atom   3 batch   17 overlaps    8 atoms,    66 shells and     8 DB shells.   NGrid=       604
 IPart=  3 Atom   3 batch   18 overlaps    8 atoms,    49 shells and     8 DB shells.   NGrid=       604
 IPart=  7 Atom   3 batch   19 overlaps    8 atoms,    33 shells and     7 DB shells.   NGrid=       604
 IPart=  5 Atom   3 batch   20 overlaps    8 atoms,    22 shells and     4 DB shells.   NGrid=       604
 Symmetry reduced   302 angular points to   302 for atom    3.
 IPart=  6 Atom   3 batch   21 overlaps    8 atoms,     9 shells and     0 DB shells.   NGrid=       604
 Symmetry reduced   302 angular points to   302 for atom    3.
 IPart=  1 Atom   3 batch   22 overlaps    8 atoms,     5 shells and     0 DB shells.   NGrid=       302
 Pruned (  99, 590) grid will be used in numerical quadrature.
 Symmetry reduced   302 angular points to   302 for atom    3.
 IPart=  2 Atom number   4 atomic number  1 has       23164 grid points.
 IPart=  2 Atom   4 batch    1 overlaps    8 atoms,    81 shells and     8 DB shells.   NGrid=      2838
 Symmetry reduced    86 angular points to    86 for atom    4.
 Pruned (  99, 590) grid will be used in numerical quadrature.
 IPart=  5 Atom number   4 atomic number  1 has       23164 grid points.
 IPart=  5 Atom   4 batch    2 overlaps    8 atoms,    82 shells and     8 DB shells.   NGrid=      1552
 Symmetry reduced   194 angular points to   194 for atom    4.
 Pruned (  99, 590) grid will be used in numerical quadrature.
 IPart=  7 Atom number   4 atomic number  1 has       23164 grid points.
 IPart=  7 Atom   4 batch    3 overlaps    8 atoms,    82 shells and     8 DB shells.   NGrid=      2416
 Symmetry reduced   302 angular points to   302 for atom    4.
 Pruned (  99, 590) grid will be used in numerical quadrature.
 IPart=  1 Atom number   4 atomic number  1 has       23164 grid points.
 IPart=  1 Atom   4 batch    4 overlaps    8 atoms,    82 shells and     8 DB shells.   NGrid=      1180
 Symmetry reduced   590 angular points to   590 for atom    4.
 Pruned (  99, 590) grid will be used in numerical quadrature.
 IPart=  3 Atom number   4 atomic number  1 has       23164 grid points.
 IPart=  3 Atom   4 batch    5 overlaps    8 atoms,    82 shells and     8 DB shells.   NGrid=      1180
 Symmetry reduced   590 angular points to   590 for atom    4.
 Pruned (  99, 590) grid will be used in numerical quadrature.
 IPart=  6 Atom number   4 atomic number  1 has       23164 grid points.
 IPart=  6 Atom   4 batch    6 overlaps    8 atoms,    82 shells and     8 DB shells.   NGrid=      1180
 Symmetry reduced   590 angular points to   590 for atom    4.
 Pruned (  99, 590) grid will be used in numerical quadrature.
 IPart=  0 Atom number   4 atomic number  1 has       23164 grid points.
 IPart=  0 Atom   4 batch    7 overlaps    8 atoms,    82 shells and     8 DB shells.   NGrid=      1180
 Symmetry reduced   590 angular points to   590 for atom    4.
 Pruned (  99, 590) grid will be used in numerical quadrature.
 IPart=  4 Atom number   4 atomic number  1 has       23164 grid points.
 IPart=  4 Atom   4 batch    8 overlaps    8 atoms,    82 shells and     8 DB shells.   NGrid=      1180
 Symmetry reduced   590 angular points to   590 for atom    4.
 IPart=  1 Atom   4 batch    9 overlaps    8 atoms,    82 shells and     8 DB shells.   NGrid=      1180
 IPart=  3 Atom   4 batch   10 overlaps    8 atoms,    82 shells and     8 DB shells.   NGrid=      1180
 IPart=  6 Atom   4 batch   11 overlaps    8 atoms,    82 shells and     8 DB shells.   NGrid=      1180
 IPart=  0 Atom   4 batch   12 overlaps    8 atoms,    82 shells and     8 DB shells.   NGrid=      1180
 IPart=  4 Atom   4 batch   13 overlaps    8 atoms,    82 shells and     8 DB shells.   NGrid=       604
 Symmetry reduced   302 angular points to   302 for atom    4.
 IPart=  5 Atom   4 batch   14 overlaps    8 atoms,    81 shells and     8 DB shells.   NGrid=       604
 Symmetry reduced   302 angular points to   302 for atom    4.
 IPart=  4 Atom   4 batch   15 overlaps    8 atoms,    78 shells and     8 DB shells.   NGrid=       604
 IPart=  5 Atom   4 batch   16 overlaps    8 atoms,    74 shells and     8 DB shells.   NGrid=       604
 IPart=  0 Atom   4 batch   17 overlaps    8 atoms,    66 shells and     8 DB shells.   NGrid=       604
 Symmetry reduced   302 angular points to   302 for atom    4.
 IPart=  7 Atom   4 batch   18 overlaps    8 atoms,    49 shells and     8 DB shells.   NGrid=       604
 IPart=  1 Atom   4 batch   19 overlaps    8 atoms,    33 shells and     7 DB shells.   NGrid=       604
 Symmetry reduced   302 angular points to   302 for atom    4.
 IPart=  4 Atom   4 batch   20 overlaps    8 atoms,    22 shells and     4 DB shells.   NGrid=       604
 IPart=  5 Atom   4 batch   21 overlaps    8 atoms,     9 shells and     0 DB shells.   NGrid=       604
 IPart=  6 Atom   4 batch   22 overlaps    8 atoms,     5 shells and     0 DB shells.   NGrid=       302
 Symmetry reduced   302 angular points to   302 for atom    4.
 Pruned (  99, 590) grid will be used in numerical quadrature.
 IPart=  3 Atom number   5 atomic number  1 has       23164 grid points.
 IPart=  3 Atom   5 batch    1 overlaps    8 atoms,    81 shells and     8 DB shells.   NGrid=      2838
 Pruned (  99, 590) grid will be used in numerical quadrature.
 Symmetry reduced    86 angular points to    86 for atom    5.
 IPart=  4 Atom number   5 atomic number  1 has       23164 grid points.
 IPart=  4 Atom   5 batch    2 overlaps    8 atoms,    82 shells and     8 DB shells.   NGrid=      1552
 Symmetry reduced   194 angular points to   194 for atom    5.
 Pruned (  99, 590) grid will be used in numerical quadrature.
 IPart=  1 Atom number   5 atomic number  1 has       23164 grid points.
 IPart=  1 Atom   5 batch    3 overlaps    8 atoms,    82 shells and     8 DB shells.   NGrid=      2416
 Symmetry reduced   302 angular points to   302 for atom    5.
 Pruned (  99, 590) grid will be used in numerical quadrature.
 IPart=  2 Atom number   5 atomic number  1 has       23164 grid points.
 IPart=  2 Atom   5 batch    4 overlaps    8 atoms,    82 shells and     8 DB shells.   NGrid=      1180
 Pruned (  99, 590) grid will be used in numerical quadrature.
 Symmetry reduced   590 angular points to   590 for atom    5.
 IPart=  5 Atom number   5 atomic number  1 has       23164 grid points.
 IPart=  5 Atom   5 batch    5 overlaps    8 atoms,    82 shells and     8 DB shells.   NGrid=      1180
 Symmetry reduced   590 angular points to   590 for atom    5.
 Pruned (  99, 590) grid will be used in numerical quadrature.
 IPart=  6 Atom number   5 atomic number  1 has       23164 grid points.
 IPart=  6 Atom   5 batch    6 overlaps    8 atoms,    82 shells and     8 DB shells.   NGrid=      1180
 Symmetry reduced   590 angular points to   590 for atom    5.
 Pruned (  99, 590) grid will be used in numerical quadrature.
 IPart=  7 Atom number   5 atomic number  1 has       23164 grid points.
 IPart=  7 Atom   5 batch    7 overlaps    8 atoms,    82 shells and     8 DB shells.   NGrid=      1180
 Symmetry reduced   590 angular points to   590 for atom    5.
 Pruned (  99, 590) grid will be used in numerical quadrature.
 IPart=  0 Atom number   5 atomic number  1 has       23164 grid points.
 IPart=  0 Atom   5 batch    8 overlaps    8 atoms,    82 shells and     8 DB shells.   NGrid=      1180
 Symmetry reduced   590 angular points to   590 for atom    5.
 IPart=  2 Atom   5 batch    9 overlaps    8 atoms,    82 shells and     8 DB shells.   NGrid=      1180
 IPart=  6 Atom   5 batch   11 overlaps    8 atoms,    82 shells and     8 DB shells.   NGrid=      1180
 IPart=  5 Atom   5 batch   10 overlaps    8 atoms,    82 shells and     8 DB shells.   NGrid=      1180
 IPart=  7 Atom   5 batch   12 overlaps    8 atoms,    82 shells and     8 DB shells.   NGrid=      1180
 IPart=  0 Atom   5 batch   13 overlaps    8 atoms,    82 shells and     8 DB shells.   NGrid=       604
 Symmetry reduced   302 angular points to   302 for atom    5.
 IPart=  4 Atom   5 batch   14 overlaps    8 atoms,    81 shells and     8 DB shells.   NGrid=       604
 Symmetry reduced   302 angular points to   302 for atom    5.
 IPart=  4 Atom   5 batch   15 overlaps    8 atoms,    78 shells and     8 DB shells.   NGrid=       604
 IPart=  0 Atom   5 batch   16 overlaps    8 atoms,    74 shells and     8 DB shells.   NGrid=       604
 IPart=  1 Atom   5 batch   17 overlaps    8 atoms,    66 shells and     8 DB shells.   NGrid=       604
 IPart=  7 Atom   5 batch   18 overlaps    8 atoms,    49 shells and     8 DB shells.   NGrid=       604
 Symmetry reduced   302 angular points to   302 for atom    5.
 IPart=  6 Atom   5 batch   19 overlaps    8 atoms,    33 shells and     7 DB shells.   NGrid=       604
 Symmetry reduced   302 angular points to   302 for atom    5.
 IPart=  2 Atom   5 batch   20 overlaps    8 atoms,    22 shells and     4 DB shells.   NGrid=       604
 Symmetry reduced   302 angular points to   302 for atom    5.
 IPart=  0 Atom   5 batch   21 overlaps    8 atoms,     9 shells and     0 DB shells.   NGrid=       604
 IPart=  5 Atom   5 batch   22 overlaps    8 atoms,     5 shells and     0 DB shells.   NGrid=       302
 Symmetry reduced   302 angular points to   302 for atom    5.
 Pruned (  99, 590) grid will be used in numerical quadrature.
 IPart=  4 Atom number   6 atomic number  1 has       23164 grid points.
 Pruned (  99, 590) grid will be used in numerical quadrature.
 IPart=  4 Atom   6 batch    1 overlaps    8 atoms,    81 shells and     8 DB shells.   NGrid=      2838
 Pruned (  99, 590) grid will be used in numerical quadrature.
 Symmetry reduced    86 angular points to    86 for atom    6.
 Pruned (  99, 590) grid will be used in numerical quadrature.
 IPart=  5 Atom number   6 atomic number  1 has       23164 grid points.
 IPart=  2 Atom number   6 atomic number  1 has       23164 grid points.
 IPart=  5 Atom   6 batch    3 overlaps    8 atoms,    81 shells and     8 DB shells.   NGrid=      2416
 Pruned (  99, 590) grid will be used in numerical quadrature.
 Symmetry reduced   302 angular points to   302 for atom    6.
 IPart=  6 Atom number   6 atomic number  1 has       23164 grid points.
 IPart=  2 Atom   6 batch    4 overlaps    8 atoms,    82 shells and     8 DB shells.   NGrid=      1180
 IPart=  6 Atom   6 batch    5 overlaps    8 atoms,    82 shells and     8 DB shells.   NGrid=      1180
 Symmetry reduced   590 angular points to   590 for atom    6.
 IPart=  3 Atom number   6 atomic number  1 has       23164 grid points.
 Symmetry reduced   590 angular points to   590 for atom    6.
 IPart=  3 Atom   6 batch    2 overlaps    8 atoms,    81 shells and     8 DB shells.   NGrid=      1552
 Symmetry reduced   194 angular points to   194 for atom    6.
 Pruned (  99, 590) grid will be used in numerical quadrature.
 IPart=  0 Atom number   6 atomic number  1 has       23164 grid points.
 IPart=  0 Atom   6 batch    6 overlaps    8 atoms,    82 shells and     8 DB shells.   NGrid=      1180
 Symmetry reduced   590 angular points to   590 for atom    6.
 Pruned (  99, 590) grid will be used in numerical quadrature.
 IPart=  7 Atom number   6 atomic number  1 has       23164 grid points.
 IPart=  7 Atom   6 batch    7 overlaps    8 atoms,    82 shells and     8 DB shells.   NGrid=      1180
 Symmetry reduced   590 angular points to   590 for atom    6.
 Pruned (  99, 590) grid will be used in numerical quadrature.
 IPart=  1 Atom number   6 atomic number  1 has       23164 grid points.
 IPart=  1 Atom   6 batch    8 overlaps    8 atoms,    82 shells and     8 DB shells.   NGrid=      1180
 Symmetry reduced   590 angular points to   590 for atom    6.
 IPart=  2 Atom   6 batch    9 overlaps    8 atoms,    82 shells and     8 DB shells.   NGrid=      1180
 IPart=  6 Atom   6 batch   10 overlaps    8 atoms,    82 shells and     8 DB shells.   NGrid=      1180
 IPart=  0 Atom   6 batch   11 overlaps    8 atoms,    82 shells and     8 DB shells.   NGrid=      1180
 IPart=  7 Atom   6 batch   12 overlaps    8 atoms,    82 shells and     8 DB shells.   NGrid=      1180
 IPart=  1 Atom   6 batch   13 overlaps    8 atoms,    82 shells and     8 DB shells.   NGrid=       604
 IPart=  3 Atom   6 batch   14 overlaps    8 atoms,    82 shells and     8 DB shells.   NGrid=       604
 Symmetry reduced   302 angular points to   302 for atom    6.
 Symmetry reduced   302 angular points to   302 for atom    6.
 IPart=  3 Atom   6 batch   15 overlaps    8 atoms,    78 shells and     8 DB shells.   NGrid=       604
 IPart=  1 Atom   6 batch   16 overlaps    8 atoms,    76 shells and     8 DB shells.   NGrid=       604
 IPart=  5 Atom   6 batch   17 overlaps    8 atoms,    64 shells and     8 DB shells.   NGrid=       604
 IPart=  2 Atom   6 batch   18 overlaps    8 atoms,    50 shells and     8 DB shells.   NGrid=       604
 Symmetry reduced   302 angular points to   302 for atom    6.
 IPart=  7 Atom   6 batch   19 overlaps    8 atoms,    34 shells and     8 DB shells.   NGrid=       604
 Symmetry reduced   302 angular points to   302 for atom    6.
 IPart=  0 Atom   6 batch   20 overlaps    8 atoms,    21 shells and     3 DB shells.   NGrid=       604
 Symmetry reduced   302 angular points to   302 for atom    6.
 IPart=  6 Atom   6 batch   21 overlaps    8 atoms,    10 shells and     0 DB shells.   NGrid=       604
 Symmetry reduced   302 angular points to   302 for atom    6.
 IPart=  1 Atom   6 batch   22 overlaps    8 atoms,     5 shells and     0 DB shells.   NGrid=       302
 Pruned (  99, 590) grid will be used in numerical quadrature.
 IPart=  3 Atom number   7 atomic number  1 has       23164 grid points.
 IPart=  3 Atom   7 batch    1 overlaps    8 atoms,    81 shells and     8 DB shells.   NGrid=      2838
 Symmetry reduced    86 angular points to    86 for atom    7.
 Pruned (  99, 590) grid will be used in numerical quadrature.
 IPart=  0 Atom number   7 atomic number  1 has       23164 grid points.
 IPart=  0 Atom   7 batch    2 overlaps    8 atoms,    81 shells and     8 DB shells.   NGrid=      1552
 Symmetry reduced   194 angular points to   194 for atom    7.
 Pruned (  99, 590) grid will be used in numerical quadrature.
 IPart=  7 Atom number   7 atomic number  1 has       23164 grid points.
 IPart=  7 Atom   7 batch    3 overlaps    8 atoms,    81 shells and     8 DB shells.   NGrid=      2416
 Symmetry reduced   302 angular points to   302 for atom    7.
 Pruned (  99, 590) grid will be used in numerical quadrature.
 Pruned (  99, 590) grid will be used in numerical quadrature.
 IPart=  4 Atom number   7 atomic number  1 has       23164 grid points.
 IPart=  1 Atom number   7 atomic number  1 has       23164 grid points.
 IPart=  4 Atom   7 batch    4 overlaps    8 atoms,    82 shells and     8 DB shells.   NGrid=      1180
 IPart=  1 Atom   7 batch    5 overlaps    8 atoms,    82 shells and     8 DB shells.   NGrid=      1180
 Symmetry reduced   590 angular points to   590 for atom    7.
 Symmetry reduced   590 angular points to   590 for atom    7.
 Pruned (  99, 590) grid will be used in numerical quadrature.
 IPart=  6 Atom number   7 atomic number  1 has       23164 grid points.
 IPart=  6 Atom   7 batch    6 overlaps    8 atoms,    82 shells and     8 DB shells.   NGrid=      1180
 Symmetry reduced   590 angular points to   590 for atom    7.
 Pruned (  99, 590) grid will be used in numerical quadrature.
 IPart=  2 Atom number   7 atomic number  1 has       23164 grid points.
 IPart=  2 Atom   7 batch    7 overlaps    8 atoms,    82 shells and     8 DB shells.   NGrid=      1180
 Symmetry reduced   590 angular points to   590 for atom    7.
 Pruned (  99, 590) grid will be used in numerical quadrature.
 IPart=  5 Atom number   7 atomic number  1 has       23164 grid points.
 IPart=  5 Atom   7 batch    8 overlaps    8 atoms,    82 shells and     8 DB shells.   NGrid=      1180
 Symmetry reduced   590 angular points to   590 for atom    7.
 IPart=  4 Atom   7 batch    9 overlaps    8 atoms,    82 shells and     8 DB shells.   NGrid=      1180
 IPart=  1 Atom   7 batch   10 overlaps    8 atoms,    82 shells and     8 DB shells.   NGrid=      1180
 IPart=  6 Atom   7 batch   11 overlaps    8 atoms,    82 shells and     8 DB shells.   NGrid=      1180
 IPart=  2 Atom   7 batch   12 overlaps    8 atoms,    82 shells and     8 DB shells.   NGrid=      1180
 IPart=  5 Atom   7 batch   13 overlaps    8 atoms,    82 shells and     8 DB shells.   NGrid=       604
 Symmetry reduced   302 angular points to   302 for atom    7.
 IPart=  0 Atom   7 batch   14 overlaps    8 atoms,    82 shells and     8 DB shells.   NGrid=       604
 Symmetry reduced   302 angular points to   302 for atom    7.
 IPart=  5 Atom   7 batch   15 overlaps    8 atoms,    78 shells and     8 DB shells.   NGrid=       604
 IPart=  0 Atom   7 batch   16 overlaps    8 atoms,    76 shells and     8 DB shells.   NGrid=       604
 IPart=  7 Atom   7 batch   17 overlaps    8 atoms,    64 shells and     8 DB shells.   NGrid=       604
 IPart=  4 Atom   7 batch   18 overlaps    8 atoms,    50 shells and     8 DB shells.   NGrid=       604
 Symmetry reduced   302 angular points to   302 for atom    7.
 IPart=  0 Atom   7 batch   19 overlaps    8 atoms,    34 shells and     8 DB shells.   NGrid=       604
 IPart=  2 Atom   7 batch   20 overlaps    8 atoms,    21 shells and     3 DB shells.   NGrid=       604
 Symmetry reduced   302 angular points to   302 for atom    7.
 IPart=  6 Atom   7 batch   21 overlaps    8 atoms,    10 shells and     0 DB shells.   NGrid=       604
 Symmetry reduced   302 angular points to   302 for atom    7.
 IPart=  5 Atom   7 batch   22 overlaps    8 atoms,     5 shells and     0 DB shells.   NGrid=       302
 Pruned (  99, 590) grid will be used in numerical quadrature.
 IPart=  1 Atom number   8 atomic number  1 has       23164 grid points.
 IPart=  1 Atom   8 batch    1 overlaps    8 atoms,    81 shells and     8 DB shells.   NGrid=      2838
 Symmetry reduced    86 angular points to    86 for atom    8.
 Pruned (  99, 590) grid will be used in numerical quadrature.
 IPart=  0 Atom number   8 atomic number  1 has       23164 grid points.
 IPart=  0 Atom   8 batch    2 overlaps    8 atoms,    81 shells and     8 DB shells.   NGrid=      1552
 Symmetry reduced   194 angular points to   194 for atom    8.
 Pruned (  99, 590) grid will be used in numerical quadrature.
 IPart=  2 Atom number   8 atomic number  1 has       23164 grid points.
 Pruned (  99, 590) grid will be used in numerical quadrature.
 IPart=  2 Atom   8 batch    3 overlaps    8 atoms,    81 shells and     8 DB shells.   NGrid=      2416
 IPart=  5 Atom number   8 atomic number  1 has       23164 grid points.
 Symmetry reduced   302 angular points to   302 for atom    8.
 IPart=  5 Atom   8 batch    4 overlaps    8 atoms,    82 shells and     8 DB shells.   NGrid=      1180
 Symmetry reduced   590 angular points to   590 for atom    8.
 Pruned (  99, 590) grid will be used in numerical quadrature.
 IPart=  3 Atom number   8 atomic number  1 has       23164 grid points.
 IPart=  3 Atom   8 batch    5 overlaps    8 atoms,    82 shells and     8 DB shells.   NGrid=      1180
 Symmetry reduced   590 angular points to   590 for atom    8.
 Pruned (  99, 590) grid will be used in numerical quadrature.
 IPart=  6 Atom number   8 atomic number  1 has       23164 grid points.
 IPart=  6 Atom   8 batch    6 overlaps    8 atoms,    82 shells and     8 DB shells.   NGrid=      1180
 Symmetry reduced   590 angular points to   590 for atom    8.
 Pruned (  99, 590) grid will be used in numerical quadrature.
 IPart=  4 Atom number   8 atomic number  1 has       23164 grid points.
 IPart=  4 Atom   8 batch    7 overlaps    8 atoms,    82 shells and     8 DB shells.   NGrid=      1180
 Symmetry reduced   590 angular points to   590 for atom    8.
 Pruned (  99, 590) grid will be used in numerical quadrature.
 IPart=  7 Atom number   8 atomic number  1 has       23164 grid points.
 IPart=  7 Atom   8 batch    8 overlaps    8 atoms,    82 shells and     8 DB shells.   NGrid=      1180
 Symmetry reduced   590 angular points to   590 for atom    8.
 IPart=  3 Atom   8 batch    9 overlaps    8 atoms,    82 shells and     8 DB shells.   NGrid=      1180
 IPart=  5 Atom   8 batch   10 overlaps    8 atoms,    82 shells and     8 DB shells.   NGrid=      1180
 IPart=  6 Atom   8 batch   11 overlaps    8 atoms,    82 shells and     8 DB shells.   NGrid=      1180
 IPart=  4 Atom   8 batch   12 overlaps    8 atoms,    82 shells and     8 DB shells.   NGrid=      1180
 IPart=  7 Atom   8 batch   13 overlaps    8 atoms,    82 shells and     8 DB shells.   NGrid=       604
 Symmetry reduced   302 angular points to   302 for atom    8.
 IPart=  0 Atom   8 batch   14 overlaps    8 atoms,    82 shells and     8 DB shells.   NGrid=       604
 Symmetry reduced   302 angular points to   302 for atom    8.
 IPart=  0 Atom   8 batch   15 overlaps    8 atoms,    78 shells and     8 DB shells.   NGrid=       604
 IPart=  7 Atom   8 batch   16 overlaps    8 atoms,    76 shells and     8 DB shells.   NGrid=       604
 IPart=  2 Atom   8 batch   17 overlaps    8 atoms,    64 shells and     8 DB shells.   NGrid=       604
 IPart=  6 Atom   8 batch   18 overlaps    8 atoms,    50 shells and     8 DB shells.   NGrid=       604
 Symmetry reduced   302 angular points to   302 for atom    8.
 IPart=  4 Atom   8 batch   19 overlaps    8 atoms,    34 shells and     8 DB shells.   NGrid=       604
 Symmetry reduced   302 angular points to   302 for atom    8.
 IPart=  3 Atom   8 batch   20 overlaps    8 atoms,    21 shells and     3 DB shells.   NGrid=       604
 Symmetry reduced   302 angular points to   302 for atom    8.
 IPart=  5 Atom   8 batch   21 overlaps    8 atoms,    10 shells and     0 DB shells.   NGrid=       604
[...]
     28  0.195906D-02  0.574107D-03  0.571433D-02 -0.628843D-02 -0.867793D-02
               21            22            23            24            25 
     21  0.171693D-01
     22  0.435238D-02  0.163163D-01
     23 -0.825142D-02 -0.782491D-02  0.171693D-01
     24  0.413903D-02 -0.782491D-02  0.435238D-02  0.163163D-01
     25 -0.867793D-02  0.413903D-02  0.477889D-02  0.435238D-02  0.171693D-01
     26 -0.782491D-02 -0.782491D-02  0.413903D-02 -0.782491D-02 -0.782491D-02
     27  0.456554D-02 -0.782491D-02 -0.867793D-02  0.413903D-02 -0.825142D-02
     28 -0.825142D-02  0.413903D-02 -0.825142D-02 -0.782491D-02  0.456554D-02
               26            27            28 
     26  0.163163D-01
     27  0.435238D-02  0.171693D-01
     28  0.435238D-02  0.477889D-02  0.171693D-01
 Leave Link  716 at Wed Jun 19 08:46:06 2024, MaxMem=  1572864000 cpu:               0.4 elap:               0.1
 (Enter /software/sse/easybuild/prefix/software/Gaussian/16.C.01-avx2-nsc1/g16/l103.exe)

 GradGradGradGradGradGradGradGradGradGradGradGradGradGradGradGradGradGrad
 Berny optimization.
 Red2BG is reusing G-inverse.
 Internal  Forces:  Max     0.000000040 RMS     0.000000015
 Search for a local minimum.
 Step number   1 out of a maximum of    2
 All quantities printed in internal units (Hartrees-Bohrs-Radians)
 Second derivative matrix not updated -- analytic derivatives used.
 ITU=  0
     Eigenvalues ---    0.00200   0.05445   0.05445   0.05641   0.05641
     Eigenvalues ---    0.14202   0.14623   0.14623   0.15387   0.22186
     Eigenvalues ---    0.22186   0.33496   0.38079   0.38079   0.38802
     Eigenvalues ---    0.47909   0.47909   0.48806
 Angle between quadratic step and forces=  90.00 degrees.
 Linear search not attempted -- first point.
 Iteration  1 RMS(Cart)=  0.00000004 RMS(Int)=  0.00000000
 ITry= 1 IFail=0 DXMaxC= 1.09D-07 DCOld= 1.00D+10 DXMaxT= 3.00D-01 DXLimC= 3.00D+00 Rises=F
 ClnCor:  largest displacement from symmetrization is 8.54D-13 for atom     4.
 Variable       Old X    -DE/DX   Delta X   Delta X   Delta X     New X
                                 (Linear)    (Quad)   (Total)
    R1        2.84078   0.00000   0.00000   0.00000   0.00000   2.84078
    R2        1.90413  -0.00000   0.00000  -0.00000  -0.00000   1.90413
    R3        1.90413  -0.00000   0.00000  -0.00000  -0.00000   1.90413
    R4        1.90413  -0.00000   0.00000  -0.00000  -0.00000   1.90413
    R5        2.03547   0.00000   0.00000   0.00000   0.00000   2.03547
    R6        2.03547   0.00000   0.00000   0.00000   0.00000   2.03547
    R7        2.03547   0.00000   0.00000   0.00000   0.00000   2.03547
    A1        1.94349   0.00000   0.00000  -0.00000  -0.00000   1.94349
    A2        1.94349   0.00000   0.00000  -0.00000  -0.00000   1.94349
    A3        1.94349   0.00000   0.00000  -0.00000  -0.00000   1.94349
    A4        1.87666  -0.00000   0.00000   0.00000   0.00000   1.87666
    A5        1.87666  -0.00000   0.00000   0.00000   0.00000   1.87666
    A6        1.87666  -0.00000   0.00000   0.00000   0.00000   1.87666
    A7        1.88779  -0.00000   0.00000  -0.00000  -0.00000   1.88779
    A8        1.88779  -0.00000   0.00000  -0.00000  -0.00000   1.88779
    A9        1.88779  -0.00000   0.00000  -0.00000  -0.00000   1.88779
   A10        1.93291   0.00000   0.00000   0.00000   0.00000   1.93291
   A11        1.93291   0.00000   0.00000   0.00000   0.00000   1.93291
   A12        1.93291   0.00000   0.00000   0.00000   0.00000   1.93291
    D1        1.04720  -0.00000   0.00000  -0.00000   0.00000   1.04720
    D2       -1.04720  -0.00000   0.00000  -0.00000   0.00000  -1.04720
    D3        3.14159  -0.00000   0.00000  -0.00000   0.00000   3.14159
    D4       -1.04720  -0.00000   0.00000  -0.00000   0.00000  -1.04720
    D5        3.14159  -0.00000   0.00000  -0.00000   0.00000   3.14159
    D6        1.04720  -0.00000   0.00000  -0.00000  -0.00000   1.04720
    D7        3.14159   0.00000   0.00000  -0.00000   0.00000   3.14159
    D8        1.04720   0.00000   0.00000  -0.00000  -0.00000   1.04720
    D9       -1.04720   0.00000   0.00000  -0.00000   0.00000  -1.04720
         Item               Value     Threshold  Converged?
 Maximum Force            0.000000     0.000002     YES
 RMS     Force            0.000000     0.000001     YES
 Maximum Displacement     0.000000     0.000006     YES
 RMS     Displacement     0.000000     0.000004     YES
 Predicted change in Energy=-8.746321D-15
 Optimization completed.
    -- Stationary point found.
                           ----------------------------
                           !   Optimized Parameters   !
                           ! (Angstroms and Degrees)  !
 --------------------------                            --------------------------
 ! Name  Definition              Value          Derivative Info.                !
 --------------------------------------------------------------------------------
 ! R1    R(1,2)                  1.5033         -DE/DX =    0.0                 !
 ! R2    R(1,3)                  1.0076         -DE/DX =    0.0                 !
 ! R3    R(1,4)                  1.0076         -DE/DX =    0.0                 !
 ! R4    R(1,5)                  1.0076         -DE/DX =    0.0                 !
 ! R5    R(2,6)                  1.0771         -DE/DX =    0.0                 !
 ! R6    R(2,7)                  1.0771         -DE/DX =    0.0                 !
 ! R7    R(2,8)                  1.0771         -DE/DX =    0.0                 !
 ! A1    A(2,1,3)              111.3539         -DE/DX =    0.0                 !
 ! A2    A(2,1,4)              111.3539         -DE/DX =    0.0                 !
 ! A3    A(2,1,5)              111.3539         -DE/DX =    0.0                 !
 ! A4    A(3,1,4)              107.5247         -DE/DX =    0.0                 !
 ! A5    A(3,1,5)              107.5247         -DE/DX =    0.0                 !
 ! A6    A(4,1,5)              107.5247         -DE/DX =    0.0                 !
 ! A7    A(1,2,6)              108.1624         -DE/DX =    0.0                 !
 ! A8    A(1,2,7)              108.1624         -DE/DX =    0.0                 !
 ! A9    A(1,2,8)              108.1624         -DE/DX =    0.0                 !
 ! A10   A(6,2,7)              110.7477         -DE/DX =    0.0                 !
 ! A11   A(6,2,8)              110.7477         -DE/DX =    0.0                 !
 ! A12   A(7,2,8)              110.7477         -DE/DX =    0.0                 !
 ! D1    D(3,1,2,6)             60.0            -DE/DX =    0.0                 !
 ! D2    D(3,1,2,7)            -60.0            -DE/DX =    0.0                 !
 ! D3    D(3,1,2,8)            180.0            -DE/DX =    0.0                 !
 ! D4    D(4,1,2,6)            -60.0            -DE/DX =    0.0                 !
 ! D5    D(4,1,2,7)            180.0            -DE/DX =    0.0                 !
 ! D6    D(4,1,2,8)             60.0            -DE/DX =    0.0                 !
 ! D7    D(5,1,2,6)            180.0            -DE/DX =    0.0                 !
 ! D8    D(5,1,2,7)             60.0            -DE/DX =    0.0                 !
 ! D9    D(5,1,2,8)            -60.0            -DE/DX =    0.0                 !
 --------------------------------------------------------------------------------
 GradGradGradGradGradGradGradGradGradGradGradGradGradGradGradGradGradGrad

 Leave Link  103 at Wed Jun 19 08:46:06 2024, MaxMem=  1572864000 cpu:               0.1 elap:               0.0
 (Enter /software/sse/easybuild/prefix/software/Gaussian/16.C.01-avx2-nsc1/g16/l9999.exe)

 ----------------------------------------------------------------------

 Electric dipole moment (input orientation):
 (Debye = 10**-18 statcoulomb cm , SI units = C m)
                  (au)            (Debye)         (10**-30 SI)
   Tot        0.842926D+00      0.214250D+01      0.714663D+01
   x          0.000000D+00      0.000000D+00      0.000000D+00
   y          0.000000D+00      0.000000D+00      0.000000D+00
   z          0.842926D+00      0.214250D+01      0.714663D+01

 Dipole polarizability, Alpha (input orientation).
 (esu units = cm**3 , SI units = C**2 m**2 J**-1)
 Alpha(0;0):
               (au)            (10**-24 esu)      (10**-40 SI)
   iso        0.191462D+02      0.283718D+01      0.315678D+01
   aniso      0.287422D+01      0.425916D+00      0.473895D+00
   xx         0.181881D+02      0.269520D+01      0.299882D+01
   yx         0.000000D+00      0.000000D+00      0.000000D+00
   yy         0.181881D+02      0.269520D+01      0.299882D+01
   zx         0.000000D+00      0.000000D+00      0.000000D+00
   zy         0.000000D+00      0.000000D+00      0.000000D+00
   zz         0.210624D+02      0.312112D+01      0.347271D+01

 First dipole hyperpolarizability, Beta (input orientation).
 ||, _|_  parallel and perpendicular components, (z) with respect to z axis,
 vector components x,y,z.  Values do not include the 1/n! factor of 1/2.
 (esu units = statvolt**-1 cm**4 , SI units = C**3 m**3 J**-2)
 Beta(0;0,0):
               (au)            (10**-30 esu)      (10**-50 SI)
   || (z)    -0.509688D+01     -0.440331D-01     -0.163425D-01
   _|_(z)    -0.169896D+01     -0.146777D-01     -0.544748D-02
   x          0.000000D+00      0.000000D+00      0.000000D+00
   y          0.000000D+00      0.000000D+00      0.000000D+00
   z         -0.254844D+02     -0.220166D+00     -0.817123D-01
   ||         0.509688D+01      0.440331D-01      0.163425D-01
   xxx        0.000000D+00      0.000000D+00      0.000000D+00
   xxy        0.204038D+01      0.176273D-01      0.654218D-02
   yxy        0.000000D+00      0.000000D+00      0.000000D+00
   yyy       -0.204038D+01     -0.176273D-01     -0.654218D-02
   xxz       -0.278870D+01     -0.240922D-01     -0.894157D-02
   yxz        0.000000D+00      0.000000D+00      0.000000D+00
   yyz       -0.278870D+01     -0.240922D-01     -0.894157D-02
   zxz        0.000000D+00      0.000000D+00      0.000000D+00
   zyz        0.000000D+00      0.000000D+00      0.000000D+00
   zzz       -0.291741D+01     -0.252042D-01     -0.935429D-02

 ----------------------------------------------------------------------

 Dipole orientation:
     7          0.00000000          0.00000020          1.33749629
     6         -0.00000000          0.00000020         -1.50328123
     1          0.00000000          1.77340605          2.03083925
     1          1.53581452         -0.88670273          2.03083925
     1         -1.53581452         -0.88670273          2.03083925
     1          1.67494258          0.96702875         -2.13776083
     1         -1.67494258          0.96702875         -2.13776083
     1         -0.00000000         -1.93405690         -2.13776083

 Electric dipole moment (dipole orientation):
 (Debye = 10**-18 statcoulomb cm , SI units = C m)
                  (au)            (Debye)         (10**-30 SI)
   Tot        0.842926D+00      0.214250D+01      0.714663D+01
   x          0.000000D+00      0.000000D+00      0.000000D+00
   y          0.000000D+00      0.000000D+00      0.000000D+00
   z          0.842926D+00      0.214250D+01      0.714663D+01

 Dipole polarizability, Alpha (dipole orientation).
 (esu units = cm**3 , SI units = C**2 m**2 J**-1)
 Alpha(0;0):
               (au)            (10**-24 esu)      (10**-40 SI)
   iso        0.191462D+02      0.283718D+01      0.315678D+01
   aniso      0.287422D+01      0.425916D+00      0.473895D+00
   xx         0.181881D+02      0.269520D+01      0.299882D+01
   yx         0.000000D+00      0.000000D+00      0.000000D+00
   yy         0.181881D+02      0.269520D+01      0.299882D+01
   zx         0.000000D+00      0.000000D+00      0.000000D+00
   zy         0.000000D+00      0.000000D+00      0.000000D+00
   zz         0.210624D+02      0.312112D+01      0.347271D+01

 First dipole hyperpolarizability, Beta (dipole orientation).
 ||, _|_  parallel and perpendicular components, (z) with respect to z axis,
 vector components x,y,z.  Values do not include the 1/n! factor of 1/2.
 (esu units = statvolt**-1 cm**4 , SI units = C**3 m**3 J**-2)
 Beta(0;0,0):
               (au)            (10**-30 esu)      (10**-50 SI)
   || (z)    -0.509688D+01     -0.440331D-01     -0.163425D-01
   _|_(z)    -0.169896D+01     -0.146777D-01     -0.544748D-02
   x          0.000000D+00      0.000000D+00      0.000000D+00
   y          0.000000D+00      0.000000D+00      0.000000D+00
   z         -0.254844D+02     -0.220166D+00     -0.817123D-01
   ||         0.509688D+01      0.440331D-01      0.163425D-01
   xxx        0.000000D+00      0.000000D+00      0.000000D+00
   xxy        0.204038D+01      0.176273D-01      0.654218D-02
   yxy        0.000000D+00      0.000000D+00      0.000000D+00
   yyy       -0.204038D+01     -0.176273D-01     -0.654218D-02
   xxz       -0.278870D+01     -0.240922D-01     -0.894157D-02
   yxz        0.000000D+00      0.000000D+00      0.000000D+00
   yyz       -0.278870D+01     -0.240922D-01     -0.894157D-02
   zxz        0.000000D+00      0.000000D+00      0.000000D+00
   zyz        0.000000D+00      0.000000D+00      0.000000D+00
   zzz       -0.291741D+01     -0.252042D-01     -0.935429D-02

 ----------------------------------------------------------------------

 Test job not archived.
 1\1\NSC-N1063\Freq\RHF\Aug-CC-pVTZ\C1H6N1(1+)\X_DAVVA\19-Jun-2024\0\\#
 P Geom=AllCheck Guess=TCheck SCRF=Check Test GenChk RHF/Aug-CC-pVTZ Fr
 eq\\methylammonium\\1,1\N,0.,0.0000001053,0.7077725566\C,0.,0.00000010
 53,-0.7955021698\H,0.,0.93844607,1.0746738521\H,0.8127180455,-0.469222
 8771,1.0746738521\H,-0.8127180455,-0.4692228771,1.0746738521\H,0.88634
 1441,0.5117295748,-1.1312543147\H,-0.886341441,0.5117295748,-1.1312543
 147\H,0.,-1.0234588338,-1.1312543147\\Version=ES64L-G16RevC.01\State=1
 -A1\HF=-95.6192435\RMSD=6.888e-10\RMSF=2.279e-08\ZeroPoint=0.0841828\T
 hermal=0.087584\ETot=-95.5316595\HTot=-95.5307153\GTot=-95.5571621\Dip
 ole=0.,0.,0.8429261\DipoleDeriv=-0.182987,0.,0.,0.,-0.182987,0.,0.,0.,
 -0.5417599,0.1589994,0.,0.,0.,0.1589993,0.,0.,0.,0.7248474,0.251411,0.
 ,0.,0.,0.3107224,0.0520602,0.,0.0362924,0.2382415,0.2958945,-0.0256826
 ,0.0450854,-0.0256826,0.2662388,-0.0260301,0.0314301,-0.0181462,0.2382
 415,0.2958945,0.0256826,-0.0450854,0.0256826,0.2662388,-0.0260301,-0.0
 314301,-0.0181462,0.2382415,0.0344794,-0.0446577,-0.0015326,-0.0446577
 ,0.0860457,-0.0008848,-0.0293948,-0.0169711,0.0340626,0.0344794,0.0446
 577,0.0015326,0.0446577,0.0860457,-0.0008848,0.0293948,-0.0169711,0.03
 40626,0.1118288,0.,0.,0.,0.0086963,0.0017697,0.,0.0339422,0.0340626\Po
 lar=18.188135,0.,18.188135,0.,0.,21.0623555\PolarDeriv=0.0000002,2.292
 4512,0.,-2.1262179,-0.0000003,0.,2.2924512,0.0000002,-2.292451,-0.0000
 001,-2.1262176,0.0000001,-1.9511587,0.,-1.9511588,0.,0.,4.1999456,0.,-
 3.3364841,0.,2.2788768,0.,-0.0000002,-3.3364842,0.,3.3364841,0.,2.2788
 768,0.,2.6191096,0.,2.6191095,0.,0.0000001,-4.6162857,0.,0.5851789,0.,
 0.7073927,0.,0.,0.8055275,0.,4.6580677,0.,1.9785544,2.2747135,0.546963
 4,0.,1.4469721,0.,1.4177366,1.5543704,3.4532955,-1.2984078,1.2783168,1
 .6607639,-0.5504292,1.9699596,-1.4085822,1.0874893,-1.3232154,-0.55042
 91,1.0251832,-1.1373568,1.2219699,-0.3897152,0.7719657,1.2277959,-0.70
 88683,1.5543704,-3.4532954,-1.2984079,-1.2783168,1.660764,0.5504291,-1
 .9699597,-1.4085821,-1.0874893,-1.3232154,0.5504292,1.0251831,-1.13735
 67,1.22197,0.3897152,0.7719655,-1.2277959,-0.7088683,1.5543704,4.52938
 98,1.8213592,1.7483999,-1.6978607,-0.5265448,2.05035,2.0279957,1.39049
 5,1.5964879,-0.5265448,-1.089859,1.1837702,-1.4503457,-0.3996323,-0.98
 88902,1.255611,0.7249273,-1.4155904,-4.5293898,1.8213592,-1.7483999,-1
 .6978607,0.5265448,-2.05035,2.0279957,-1.390495,1.5964879,0.5265448,-1
 .089859,1.1837702,-1.4503457,0.3996323,-0.9888902,-1.255611,0.7249273,
 -1.4155904,0.,-0.5870487,0.,-0.7858582,0.,0.,-1.0003218,0.,-6.2486454,
 0.,-2.0018614,-2.3675403,-0.7581623,0.,-1.6810736,0.,-1.4498546,-1.415
 5904\HyperPolar=0.,2.0403751,0.,-2.0403751,-2.7886958,0.,-2.7886958,0.
 ,0.,-2.9174144\Quadrupole=-0.8161229,-0.8161229,1.6322458,0.,0.,0.\PG=
 C03V [C3(C1N1),3SGV(H2)]\NImag=0\\0.82862234,0.,0.82862234,0.,0.,0.600
 47895,-0.11433079,0.,0.,0.70296720,0.,-0.11433079,0.,0.,0.70296720,0.,
 0.,-0.17749880,0.,0.,0.45750879,-0.07540072,0.,0.,0.00072103,0.,0.,0.0
 6706442,0.,-0.40961206,-0.12400028,0.,0.00823326,-0.00234114,0.,0.4310
 0612,0.,-0.13250231,-0.11768660,0.,-0.03874015,-0.01079456,0.,0.135234
 13,0.11908550,-0.32605923,0.14471775,-0.10738740,0.00635520,-0.0032528
 9,-0.00202749,0.00388887,-0.00127732,0.00248935,0.34002069,0.14471776,
 -0.15895356,0.06200014,-0.00325289,0.00259909,0.00117057,0.03537322,-0
 .01579641,0.01659075,-0.15759138,0.15804984,-0.11475036,0.06625115,-0.
 11768660,-0.03354996,0.01937008,-0.01079456,0.01561269,-0.00613954,0.0
 0696134,0.11711619,-0.06761707,0.11908550,-0.32605923,-0.14471775,0.10
 738740,0.00635520,0.00325289,0.00202749,0.00388886,0.00127732,-0.00248
 935,-0.02563905,-0.01832527,0.01312334,0.34002069,-0.14471775,-0.15895
 356,0.06200014,0.00325289,0.00259908,0.00117057,-0.03537322,-0.0157964
 1,0.01659075,0.01832527,0.01373150,-0.01045121,0.15759138,0.15804984,0
 .11475036,0.06625115,-0.11768660,0.03354996,0.01937008,-0.01079456,-0.
 01561269,-0.00613954,0.00696134,-0.01312334,-0.01045121,0.00696134,-0.
 11711619,-0.06761707,0.11908550,0.00660135,0.00379689,-0.00348234,-0.2
 7005287,-0.12014127,0.07638150,-0.00028171,0.00013260,0.00102602,0.000
 67731,0.00006190,0.00070109,0.00072685,0.00018815,-0.00207195,0.278387
 37,0.00379689,0.00221708,-0.00201053,-0.12014127,-0.13132569,0.0440988
 8,0.00061559,0.00056501,0.00021717,-0.00042109,-0.00039400,0.00077998,
 0.00018815,0.00050959,-0.00119624,0.12932923,0.12905084,0.03787270,0.0
 2186582,-0.02330678,0.06201188,0.03580257,-0.08254210,0.00073172,0.000
 43905,0.00162023,0.00074609,0.00041416,0.00162023,-0.00217222,-0.00125
 414,-0.00776749,-0.07947156,-0.04588293,0.09794833,0.00660135,-0.00379
 689,0.00348234,-0.27005287,0.12014127,-0.07638150,-0.00028171,-0.00013
 260,-0.00102602,0.00072685,-0.00018815,0.00207195,0.00067731,-0.000061
 90,-0.00070109,-0.01960575,0.01505631,-0.00887861,0.27838737,-0.003796
 89,0.00221707,-0.00201053,0.12014127,-0.13132569,0.04409888,-0.0006155
 9,0.00056501,0.00021717,-0.00018815,0.00050959,-0.00119624,0.00042109,
 -0.00039400,0.00077998,-0.01505631,0.01126518,-0.00739087,-0.12932923,
 0.12905084,-0.03787270,0.02186582,-0.02330678,-0.06201188,0.03580257,-
 0.08254211,-0.00073172,0.00043905,0.00162023,0.00217222,-0.00125414,-0
 .00776749,-0.00074609,0.00041416,0.00162023,0.00887861,-0.00739087,0.0
 0621379,0.07947156,-0.04588293,0.09794833,0.00002494,0.,0.,-0.06196209
 ,0.,0.,0.00040096,0.,0.,0.00002936,-0.00079518,-0.00032494,0.00002936,
 0.00079518,0.00032494,0.00354745,-0.02842381,-0.01083999,0.00354745,0.
 02842381,0.01083999,0.05438257,0.,0.00879348,0.00402106,0.,-0.33941646
 ,-0.08819776,0.,0.00083548,0.00239248,-0.00031219,0.00025395,-0.000997
 15,0.00031219,0.00025395,-0.00099715,0.00168880,-0.01188801,-0.0039936
 7,-0.00168880,-0.01188801,-0.00399367,0.,0.35305564,0.,-0.04373163,-0.
 02330678,0.,-0.07160515,-0.08254211,0.,0.00250827,-0.00776749,0.000014
 37,-0.00085321,0.00162023,-0.00001437,-0.00085321,0.00162023,-0.001961
 37,0.01138454,0.00621379,0.00196137,0.01138454,0.00621379,0.,0.0917658
 5,0.09794833\\0.,0.,-0.00000007,0.,0.,0.00000005,0.,0.00000004,0.00000
 001,0.00000003,-0.00000002,0.00000001,-0.00000003,-0.00000002,0.000000
 01,0.,0.,0.,0.,0.,0.,0.,0.,0.\\\@


 YOU WILL NEVER "FIND" TIME FOR ANYTHING.
 IF YOU WANT TIME, YOU MUST MAKE IT.

                        -- CHARLES BIXTON
 Job cpu time:       0 days  0 hours  3 minutes 40.8 seconds.
 Elapsed time:       0 days  0 hours  0 minutes 28.5 seconds.
 File lengths (MBytes):  RWF=    340 Int=      0 D2E=      0 Chk=     12 Scr=      8
 Normal termination of Gaussian 16 at Wed Jun 19 08:46:06 2024.
