 Entering Gaussian System, Link 0=/software/sse/easybuild/prefix/software/Gaussian/16.C.01-avx2-nsc1/g16/g16.orig
 Input=chloride-19-oep.wrap
 Output=chloride-19-oep.log
 Initial command:
 /software/sse/easybuild/prefix/software/Gaussian/16.C.01-avx2-nsc1/g16/l1.exe "chloride-19-oep..dir/Gau-97275.inp" -scrdir="chloride-19-oep..dir/"
 Entering Link 1 = /software/sse/easybuild/prefix/software/Gaussian/16.C.01-avx2-nsc1/g16/l1.exe PID=     97276.
  
 Copyright (c) 1988-2019, Gaussian, Inc.  All Rights Reserved.
  
 This is part of the Gaussian(R) 16 program.  It is based on
 the Gaussian(R) 09 system (copyright 2009, Gaussian, Inc.),
 the Gaussian(R) 03 system (copyright 2003, Gaussian, Inc.),
 the Gaussian(R) 98 system (copyright 1998, Gaussian, Inc.),
 the Gaussian(R) 94 system (copyright 1995, Gaussian, Inc.),
 the Gaussian 92(TM) system (copyright 1992, Gaussian, Inc.),
 the Gaussian 90(TM) system (copyright 1990, Gaussian, Inc.),
 the Gaussian 88(TM) system (copyright 1988, Gaussian, Inc.),
 the Gaussian 86(TM) system (copyright 1986, Carnegie Mellon
 University), and the Gaussian 82(TM) system (copyright 1983,
 Carnegie Mellon University). Gaussian is a federally registered
 trademark of Gaussian, Inc.
  
 This software contains proprietary and confidential information,
 including trade secrets, belonging to Gaussian, Inc.
  
 This software is provided under written license and may be
 used, copied, transmitted, or stored only in accord with that
 written license.
  
 The following legend is applicable only to US Government
 contracts under FAR:
  
                    RESTRICTED RIGHTS LEGEND
  
 Use, reproduction and disclosure by the US Government is
 subject to restrictions as set forth in subparagraphs (a)
 and (c) of the Commercial Computer Software - Restricted
 Rights clause in FAR 52.227-19.
  
 Gaussian, Inc.
 340 Quinnipiac St., Bldg. 40, Wallingford CT 06492
  
  
 ---------------------------------------------------------------
 Warning -- This program may not be used in any manner that
 competes with the business of Gaussian, Inc. or will provide
 assistance to any competitor of Gaussian, Inc.  The licensee
 of this program is prohibited from giving any competitor of
 Gaussian, Inc. access to this program.  By using this program,
 the user acknowledges that Gaussian, Inc. is engaged in the
 business of creating and licensing software in the field of
 computational chemistry and represents and warrants to the
 licensee that it is not a competitor of Gaussian, Inc. and that
 it will not use this program in any manner prohibited above.
 ---------------------------------------------------------------
  

 Cite this work as:
 Gaussian 16, Revision C.01,
 M. J. Frisch, G. W. Trucks, H. B. Schlegel, G. E. Scuseria, 
 M. A. Robb, J. R. Cheeseman, G. Scalmani, V. Barone, 
 G. A. Petersson, H. Nakatsuji, X. Li, M. Caricato, A. V. Marenich, 
 J. Bloino, B. G. Janesko, R. Gomperts, B. Mennucci, H. P. Hratchian, 
 J. V. Ortiz, A. F. Izmaylov, J. L. Sonnenberg, D. Williams-Young, 
 F. Ding, F. Lipparini, F. Egidi, J. Goings, B. Peng, A. Petrone, 
 T. Henderson, D. Ranasinghe, V. G. Zakrzewski, J. Gao, N. Rega, 
 G. Zheng, W. Liang, M. Hada, M. Ehara, K. Toyota, R. Fukuda, 
 J. Hasegawa, M. Ishida, T. Nakajima, Y. Honda, O. Kitao, H. Nakai, 
 T. Vreven, K. Throssell, J. A. Montgomery, Jr., J. E. Peralta, 
 F. Ogliaro, M. J. Bearpark, J. J. Heyd, E. N. Brothers, K. N. Kudin, 
 V. N. Staroverov, T. A. Keith, R. Kobayashi, J. Normand, 
 K. Raghavachari, A. P. Rendell, J. C. Burant, S. S. Iyengar, 
 J. Tomasi, M. Cossi, J. M. Millam, M. Klene, C. Adamo, R. Cammi, 
 J. W. Ochterski, R. L. Martin, K. Morokuma, O. Farkas, 
 J. B. Foresman, and D. J. Fox, Gaussian, Inc., Wallingford CT, 2019.
 
 ******************************************
 Gaussian 16:  ES64L-G16RevC.01  3-Jul-2019
                19-Jun-2024 
 ******************************************
 %mem=12000MB
 %nprocshared=8
 Will use up to    8 processors via shared memory.
 %chk=chloride19.chk
 ----------------------------------------------------------------------
 #P HF/aug-cc-pvtz Opt=(Redundant, calcall, verytight) symm=(loose,foll
 ow) Pop=(MK,Hirshfeld,ReadRadii) iop(6/33=2) iop(6/42=6) Polar Freq ma
 xdisk=128GB
 ----------------------------------------------------------------------
 1/7=1,10=4,18=20,19=15,38=1/1,3;
 2/9=110,12=2,17=4,18=3,40=1/2;
 3/5=16,6=1,7=10,11=9,25=1,30=1,71=2,140=1/1,2,3;
 4//1;
 5/5=2,38=5,98=1/2;
 8/6=4,10=90,11=11/1;
 11/6=1,8=1,9=11,15=111,16=1/1,2,10;
 10/6=1/2;
 6/7=2,8=2,9=2,10=2,15=8,18=1,20=101,28=1,33=2,42=6,79=1/1,2;
 7/10=1,25=1/1,2,3,16;
 1/7=1,10=4,18=20,19=15/3(3);
 2/9=110,15=5/2;
 7/8=1,9=1,25=1,44=-1/16;
 99//99;
 2/9=110,15=5/2;
 3/5=16,6=1,7=10,11=9,25=1,30=1,71=2,140=1/1,2,3;
 4/5=5,16=3,69=1/1;
 5/5=2,38=5,98=1/2;
 8/6=4,10=90,11=11/1;
 11/6=1,8=1,9=11,15=111,16=1/1,2,10;
 10/6=1/2;
 7/10=1,25=1/1,2,3,16;
 1/7=1,10=4,18=20,19=15/3(-8);
 2/9=110,15=5/2;
 6/7=2,8=2,9=2,10=2,15=8,18=1,19=2,20=101,28=1,33=2,42=6,79=1/1,2;
 7/8=1,9=1,25=1,44=-1/16;
 99//99;
 Leave Link    1 at Wed Jun 19 08:44:05 2024, MaxMem=  1572864000 cpu:               1.2 elap:               0.2
 (Enter /software/sse/easybuild/prefix/software/Gaussian/16.C.01-avx2-nsc1/g16/l101.exe)
 --------
 chloride
 --------
 Symbolic Z-matrix:
 Charge = -1 Multiplicity = 1
 Cl                    0.        0.        0. 
 
 ITRead=  0
 MicOpt= -1
 NAtoms=      1 NQM=        1 NQMF=       0 NMMI=      0 NMMIF=      0
                NMic=       0 NMicF=      0.
                    Isotopes and Nuclear Properties:
 (Nuclear quadrupole moments (NQMom) in fm**2, nuclear magnetic moments (NMagM)
  in nuclear magnetons)

  Atom         1
 IAtWgt=          35
 AtmWgt=  34.9688527
 NucSpn=           3
 AtZEff=  -0.0000000
 NQMom=   -8.1650000
 NMagM=    0.8218740
 AtZNuc=  17.0000000
 Leave Link  101 at Wed Jun 19 08:44:06 2024, MaxMem=  1572864000 cpu:               1.9 elap:               0.3
 (Enter /software/sse/easybuild/prefix/software/Gaussian/16.C.01-avx2-nsc1/g16/l103.exe)

 GradGradGradGradGradGradGradGradGradGradGradGradGradGradGradGradGradGrad
 Berny optimization.
 Initialization pass.
 No Z-matrix variables, so optimization will use Cartesian coordinates.
 Trust Radius=3.00D-01 FncErr=1.00D-07 GrdErr=1.00D-07 EigMax=2.50D+02 EigMin=1.00D-04
 Number of steps in this run=     20 maximum allowed number of steps=    100.
 GradGradGradGradGradGradGradGradGradGradGradGradGradGradGradGradGradGrad

 Leave Link  103 at Wed Jun 19 08:44:06 2024, MaxMem=  1572864000 cpu:               0.2 elap:               0.0
 (Enter /software/sse/easybuild/prefix/software/Gaussian/16.C.01-avx2-nsc1/g16/l202.exe)
                          Input orientation:                          
 ---------------------------------------------------------------------
 Center     Atomic      Atomic             Coordinates (Angstroms)
 Number     Number       Type             X           Y           Z
 ---------------------------------------------------------------------
      1         17           0        0.000000    0.000000    0.000000
 ---------------------------------------------------------------------
 Stoichiometry    Cl(1-)
 Framework group  OH[O(Cl)]
 Deg. of freedom     0
 Full point group                 OH      NOp  48
 Largest Abelian subgroup         D2H     NOp   8
 Largest concise Abelian subgroup C1      NOp   1
                         Standard orientation:                         
 ---------------------------------------------------------------------
 Center     Atomic      Atomic             Coordinates (Angstroms)
 Number     Number       Type             X           Y           Z
 ---------------------------------------------------------------------
      1         17           0        0.000000    0.000000    0.000000
 ---------------------------------------------------------------------
 Leave Link  202 at Wed Jun 19 08:44:07 2024, MaxMem=  1572864000 cpu:               0.2 elap:               0.0
 (Enter /software/sse/easybuild/prefix/software/Gaussian/16.C.01-avx2-nsc1/g16/l301.exe)
 Standard basis: Aug-CC-pVTZ (5D, 7F)
 Ernie: Thresh=  0.10000D-02 Tol=  0.10000D-05 Strict=F.
 Ernie:  13 primitive shells out of 64 were deleted.
 There are    15 symmetry adapted cartesian basis functions of AG  symmetry.
 There are     3 symmetry adapted cartesian basis functions of B1G symmetry.
 There are     3 symmetry adapted cartesian basis functions of B2G symmetry.
 There are     3 symmetry adapted cartesian basis functions of B3G symmetry.
 There are     2 symmetry adapted cartesian basis functions of AU  symmetry.
 There are    11 symmetry adapted cartesian basis functions of B1U symmetry.
 There are    11 symmetry adapted cartesian basis functions of B2U symmetry.
 There are    11 symmetry adapted cartesian basis functions of B3U symmetry.
 There are    12 symmetry adapted basis functions of AG  symmetry.
 There are     3 symmetry adapted basis functions of B1G symmetry.
 There are     3 symmetry adapted basis functions of B2G symmetry.
 There are     3 symmetry adapted basis functions of B3G symmetry.
 There are     2 symmetry adapted basis functions of AU  symmetry.
 There are     9 symmetry adapted basis functions of B1U symmetry.
 There are     9 symmetry adapted basis functions of B2U symmetry.
 There are     9 symmetry adapted basis functions of B3U symmetry.
    50 basis functions,   114 primitive gaussians,    59 cartesian basis functions
     9 alpha electrons        9 beta electrons
       nuclear repulsion energy         0.0000000000 Hartrees.
 IExCor=    0 DFT=F Ex=HF Corr=None ExCW=0 ScaHFX=  1.000000
 ScaDFX=  1.000000  1.000000  1.000000  1.000000 ScalE2=  1.000000  1.000000
 IRadAn=      5 IRanWt=     -1 IRanGd=            0 ICorTp=0 IEmpDi=  4
 NAtoms=    1 NActive=    1 NUniq=    1 SFac= 1.00D+00 NAtFMM=   60 NAOKFM=F Big=F
 Integral buffers will be    131072 words long.
 Raffenetti 1 integral format.
 Two-electron integral symmetry is turned on.
 Leave Link  301 at Wed Jun 19 08:44:07 2024, MaxMem=  1572864000 cpu:               0.5 elap:               0.1
 (Enter /software/sse/easybuild/prefix/software/Gaussian/16.C.01-avx2-nsc1/g16/l302.exe)
 NPDir=0 NMtPBC=     1 NCelOv=     1 NCel=       1 NClECP=     1 NCelD=      1
         NCelK=      1 NCelE2=     1 NClLst=     1 CellRange=     0.0.
 One-electron integrals computed using PRISM.
 One-electron integral symmetry used in STVInt
 NBasis=    50 RedAO= T EigKep=  1.62D-02  NBF=    12     3     3     3     2     9     9     9
 NBsUse=    50 1.00D-06 EigRej= -1.00D+00 NBFU=    12     3     3     3     2     9     9     9
 Leave Link  302 at Wed Jun 19 08:44:08 2024, MaxMem=  1572864000 cpu:               0.9 elap:               0.1
 (Enter /software/sse/easybuild/prefix/software/Gaussian/16.C.01-avx2-nsc1/g16/l303.exe)
 DipDrv:  MaxL=1.
 Leave Link  303 at Wed Jun 19 08:44:08 2024, MaxMem=  1572864000 cpu:               0.3 elap:               0.1
 (Enter /software/sse/easybuild/prefix/software/Gaussian/16.C.01-avx2-nsc1/g16/l401.exe)
 ExpMin= 4.19D-02 ExpMax= 4.56D+05 ExpMxC= 1.44D+03 IAcc=3 IRadAn=         5 AccDes= 0.00D+00
 Harris functional with IExCor=  205 and IRadAn=       5 diagonalized for initial guess.
 HarFok:  IExCor=  205 AccDes= 0.00D+00 IRadAn=         5 IDoV= 1 UseB2=F ITyADJ=14
 ICtDFT=  3500011 ScaDFX=  1.000000  1.000000  1.000000  1.000000
 FoFCou: FMM=F IPFlag=           0 FMFlag=      100000 FMFlg1=           0
         NFxFlg=           0 DoJE=T BraDBF=F KetDBF=T FulRan=T
         wScrn=  0.000000 ICntrl=       500 IOpCl=  0 I1Cent=   200000004 NGrid=           0
         NMat0=    1 NMatS0=      1 NMatT0=    0 NMatD0=    1 NMtDS0=    0 NMtDT0=    0
 Petite list used in FoFCou.
 Harris En= -459.276894969151    
 JPrj=0 DoOrth=F DoCkMO=F.
 Initial guess orbital symmetries:
       Occupied  (A1G) (A1G) (T1U) (T1U) (T1U) (A1G) (T1U) (T1U)
                 (T1U)
       Virtual   (A1G) (T1U) (T1U) (T1U) (T2G) (T2G) (T2G) (EG)
                 (EG) (T1U) (T1U) (T1U) (T2G) (T2G) (T2G) (EG)
                 (EG) (A1G) (T2U) (T2U) (T2U) (A2U) (T1U) (T1U)
                 (T1U) (T2G) (T2G) (T2G) (EG) (EG) (T1U) (T1U)
                 (T1U) (T2U) (T2U) (T2U) (A2U) (T1U) (T1U) (T1U)
                 (A1G)
 The electronic state of the initial guess is 1-A1G.
 Leave Link  401 at Wed Jun 19 08:44:09 2024, MaxMem=  1572864000 cpu:               1.3 elap:               0.2
 (Enter /software/sse/easybuild/prefix/software/Gaussian/16.C.01-avx2-nsc1/g16/l502.exe)
 Keep R1 ints in memory in symmetry-blocked form, NReq=4746141.
 FoFCou: FMM=F IPFlag=           0 FMFlag=           0 FMFlg1=           0
         NFxFlg=           0 DoJE=F BraDBF=F KetDBF=F FulRan=T
         wScrn=  0.000000 ICntrl=       600 IOpCl=  0 I1Cent=           0 NGrid=           0
         NMat0=    1 NMatS0=   1275 NMatT0=    0 NMatD0=    1 NMtDS0=    0 NMtDT0=    0
 Petite list used in FoFCou.
 Closed shell SCF:
 Using DIIS extrapolation, IDIIS=  1040.
 NGot=  1572864000 LenX=  1572739721 LenY=  1572735799
 Requested convergence on RMS density matrix=1.00D-08 within 128 cycles.
 Requested convergence on MAX density matrix=1.00D-06.
 Requested convergence on             energy=1.00D-06.
 No special actions if energy rises.

 Cycle   1  Pass 1  IDiag  1:
 E= -459.518591821322    
 DIIS: error= 7.63D-02 at cycle   1 NSaved=   1.
 NSaved= 1 IEnMin= 1 EnMin= -459.518591821322     IErMin= 1 ErrMin= 7.63D-02
 ErrMax= 7.63D-02  0.00D+00 EMaxC= 1.00D-01 BMatC= 1.36D-01 BMatP= 1.36D-01
 IDIUse=3 WtCom= 2.37D-01 WtEn= 7.63D-01
 Coeff-Com:  0.100D+01
 Coeff-En:   0.100D+01
 Coeff:      0.100D+01
 Gap=     0.373 Goal=   None    Shift=    0.000
 GapD=    0.373 DampG=1.000 DampE=0.500 DampFc=0.5000 IDamp=-1.
 Damping current iteration by 5.00D-01
 RMSDP=4.75D-03 MaxDP=5.51D-02              OVMax= 1.05D-01

 Cycle   2  Pass 1  IDiag  1:
 E= -459.547586275975     Delta-E=       -0.028994454653 Rises=F Damp=T
 DIIS: error= 4.06D-02 at cycle   2 NSaved=   2.
 NSaved= 2 IEnMin= 2 EnMin= -459.547586275975     IErMin= 2 ErrMin= 4.06D-02
 ErrMax= 4.06D-02  0.00D+00 EMaxC= 1.00D-01 BMatC= 3.36D-02 BMatP= 1.36D-01
 IDIUse=3 WtCom= 5.94D-01 WtEn= 4.06D-01
 Coeff-Com: -0.863D+00 0.186D+01
 Coeff-En:   0.000D+00 0.100D+01
 Coeff:     -0.513D+00 0.151D+01
 Gap=     0.440 Goal=   None    Shift=    0.000
 RMSDP=1.69D-03 MaxDP=3.32D-02 DE=-2.90D-02 OVMax= 2.69D-02

 Cycle   3  Pass 1  IDiag  1:
 E= -459.573424400962     Delta-E=       -0.025838124987 Rises=F Damp=F
 DIIS: error= 1.08D-03 at cycle   3 NSaved=   3.
 NSaved= 3 IEnMin= 3 EnMin= -459.573424400962     IErMin= 3 ErrMin= 1.08D-03
 ErrMax= 1.08D-03  0.00D+00 EMaxC= 1.00D-01 BMatC= 7.26D-05 BMatP= 3.36D-02
 IDIUse=3 WtCom= 9.89D-01 WtEn= 1.08D-02
 Coeff-Com: -0.822D-01 0.165D+00 0.917D+00
 Coeff-En:   0.000D+00 0.000D+00 0.100D+01
 Coeff:     -0.813D-01 0.163D+00 0.918D+00
 Gap=     0.439 Goal=   None    Shift=    0.000
 RMSDP=1.77D-04 MaxDP=1.81D-03 DE=-2.58D-02 OVMax= 2.93D-03

 Cycle   4  Pass 1  IDiag  1:
 E= -459.573480087011     Delta-E=       -0.000055686049 Rises=F Damp=F
 DIIS: error= 1.16D-04 at cycle   4 NSaved=   4.
 NSaved= 4 IEnMin= 4 EnMin= -459.573480087011     IErMin= 4 ErrMin= 1.16D-04
 ErrMax= 1.16D-04  0.00D+00 EMaxC= 1.00D-01 BMatC= 4.24D-07 BMatP= 7.26D-05
 IDIUse=3 WtCom= 9.99D-01 WtEn= 1.16D-03
 Coeff-Com:  0.109D-01-0.232D-01-0.992D-01 0.111D+01
 Coeff-En:   0.000D+00 0.000D+00 0.000D+00 0.100D+01
 Coeff:      0.109D-01-0.232D-01-0.990D-01 0.111D+01
 Gap=     0.439 Goal=   None    Shift=    0.000
 RMSDP=4.91D-05 MaxDP=6.12D-04 DE=-5.57D-05 OVMax= 6.15D-04

 Cycle   5  Pass 1  IDiag  1:
 E= -459.573481398642     Delta-E=       -0.000001311631 Rises=F Damp=F
 DIIS: error= 3.51D-05 at cycle   5 NSaved=   5.
 NSaved= 5 IEnMin= 5 EnMin= -459.573481398642     IErMin= 5 ErrMin= 3.51D-05
 ErrMax= 3.51D-05  0.00D+00 EMaxC= 1.00D-01 BMatC= 2.93D-08 BMatP= 4.24D-07
 IDIUse=1 WtCom= 1.00D+00 WtEn= 0.00D+00
 Coeff-Com: -0.146D-03 0.955D-03 0.196D-01-0.325D+00 0.130D+01
 Coeff:     -0.146D-03 0.955D-03 0.196D-01-0.325D+00 0.130D+01
 Gap=     0.439 Goal=   None    Shift=    0.000
 RMSDP=1.20D-05 MaxDP=1.64D-04 DE=-1.31D-06 OVMax= 1.47D-04

 Cycle   6  Pass 1  IDiag  1:
 E= -459.573481466774     Delta-E=       -0.000000068132 Rises=F Damp=F
 DIIS: error= 2.28D-06 at cycle   6 NSaved=   6.
 NSaved= 6 IEnMin= 6 EnMin= -459.573481466774     IErMin= 6 ErrMin= 2.28D-06
 ErrMax= 2.28D-06  0.00D+00 EMaxC= 1.00D-01 BMatC= 7.74D-11 BMatP= 2.93D-08
 IDIUse=1 WtCom= 1.00D+00 WtEn= 0.00D+00
 Coeff-Com:  0.498D-04-0.172D-03-0.219D-02 0.367D-01-0.175D+00 0.114D+01
 Coeff:      0.498D-04-0.172D-03-0.219D-02 0.367D-01-0.175D+00 0.114D+01
 Gap=     0.439 Goal=   None    Shift=    0.000
 RMSDP=4.46D-07 MaxDP=7.03D-06 DE=-6.81D-08 OVMax= 6.46D-06

 Cycle   7  Pass 1  IDiag  1:
 E= -459.573481466944     Delta-E=       -0.000000000170 Rises=F Damp=F
 DIIS: error= 3.81D-07 at cycle   7 NSaved=   7.
 NSaved= 7 IEnMin= 7 EnMin= -459.573481466944     IErMin= 7 ErrMin= 3.81D-07
 ErrMax= 3.81D-07  0.00D+00 EMaxC= 1.00D-01 BMatC= 1.59D-12 BMatP= 7.74D-11
 IDIUse=1 WtCom= 1.00D+00 WtEn= 0.00D+00
 Coeff-Com:  0.575D-05-0.306D-05 0.199D-03-0.369D-02 0.214D-01-0.248D+00
 Coeff-Com:  0.123D+01
 Coeff:      0.575D-05-0.306D-05 0.199D-03-0.369D-02 0.214D-01-0.248D+00
 Coeff:      0.123D+01
 Gap=     0.439 Goal=   None    Shift=    0.000
 RMSDP=3.51D-08 MaxDP=1.03D-06 DE=-1.70D-10 OVMax= 1.02D-06

 Cycle   8  Pass 1  IDiag  1:
 E= -459.573481466947     Delta-E=       -0.000000000003 Rises=F Damp=F
 DIIS: error= 2.00D-08 at cycle   8 NSaved=   8.
 NSaved= 8 IEnMin= 8 EnMin= -459.573481466947     IErMin= 8 ErrMin= 2.00D-08
 ErrMax= 2.00D-08  0.00D+00 EMaxC= 1.00D-01 BMatC= 1.00D-14 BMatP= 1.59D-12
 IDIUse=1 WtCom= 1.00D+00 WtEn= 0.00D+00
 Coeff-Com: -0.163D-05 0.328D-05 0.796D-05-0.132D-03 0.408D-03 0.698D-02
 Coeff-Com: -0.741D-01 0.107D+01
 Coeff:     -0.163D-05 0.328D-05 0.796D-05-0.132D-03 0.408D-03 0.698D-02
 Coeff:     -0.741D-01 0.107D+01
 Gap=     0.439 Goal=   None    Shift=    0.000
 RMSDP=2.39D-09 MaxDP=3.98D-08 DE=-2.96D-12 OVMax= 3.45D-08

 SCF Done:  E(RHF) =  -459.573481467     A.U. after    8 cycles
            NFock=  8  Conv=0.24D-08     -V/T= 2.0000
 KE= 4.595728133403D+02 PE=-1.100704757816D+03 EE= 1.815584630087D+02
 Leave Link  502 at Wed Jun 19 08:44:10 2024, MaxMem=  1572864000 cpu:               2.4 elap:               0.3
 (Enter /software/sse/easybuild/prefix/software/Gaussian/16.C.01-avx2-nsc1/g16/l801.exe)
 Range of M.O.s used for correlation:     1    50
 NBasis=    50 NAE=     9 NBE=     9 NFC=     0 NFV=     0
 NROrb=     50 NOA=     9 NOB=     9 NVA=    41 NVB=    41
 Leave Link  801 at Wed Jun 19 08:44:10 2024, MaxMem=  1572864000 cpu:               0.3 elap:               0.1
 (Enter /software/sse/easybuild/prefix/software/Gaussian/16.C.01-avx2-nsc1/g16/l1101.exe)
 Using compressed storage, NAtomX=     1.
 Will process      2 centers per pass.
 Leave Link 1101 at Wed Jun 19 08:44:11 2024, MaxMem=  1572864000 cpu:               0.9 elap:               0.1
 (Enter /software/sse/easybuild/prefix/software/Gaussian/16.C.01-avx2-nsc1/g16/l1102.exe)
 Symmetrizing basis deriv contribution to polar:
 IMax=3 JMax=2 DiffMx= 0.00D+00
 Leave Link 1102 at Wed Jun 19 08:44:11 2024, MaxMem=  1572864000 cpu:               0.3 elap:               0.1
 (Enter /software/sse/easybuild/prefix/software/Gaussian/16.C.01-avx2-nsc1/g16/l1110.exe)
 Forming Gx(P) for the SCF density, NAtomX=     1.
 Integral derivatives from FoFJK, PRISM(SPDF).
 Do as many integral derivatives as possible in FoFJK.
 G2DrvN: MDV=    1572863767.
 G2DrvN: will do     2 centers at a time, making    1 passes.
 Calling FoFCou, ICntrl=  3107 FMM=F I1Cent=   0 AccDes= 0.00D+00.
 FoFJK:  IHMeth= 1 ICntrl=    3107 DoSepK=F KAlg= 0 I1Cent=           0 FoldK=F
 IRaf=         0 NMat=       1 IRICut=       1 DoRegI=T DoRafI=F ISym2E= 1 IDoP0=0 IntGTp=1.
 FoFCou: FMM=F IPFlag=           0 FMFlag=      100000 FMFlg1=           0
         NFxFlg=           0 DoJE=F BraDBF=F KetDBF=F FulRan=T
         wScrn=  0.000000 ICntrl=      3107 IOpCl=  0 I1Cent=           0 NGrid=           0
         NMat0=    1 NMatS0=      1 NMatT0=    0 NMatD0=    1 NMtDS0=    0 NMtDT0=    0
 Petite list used in FoFCou.
 End of G2Drv F.D. properties file   721 does not exist.
 End of G2Drv F.D. properties file   722 does not exist.
 End of G2Drv F.D. properties file   788 does not exist.
 Leave Link 1110 at Wed Jun 19 08:44:11 2024, MaxMem=  1572864000 cpu:               3.3 elap:               0.4
 (Enter /software/sse/easybuild/prefix/software/Gaussian/16.C.01-avx2-nsc1/g16/l1002.exe)
 Minotr:  Closed shell wavefunction.
          IDoAtm=1
          Direct CPHF calculation.
          Differentiating once with respect to electric field.
                with respect to dipole field.
          Differentiating once with respect to nuclear coordinates.
          Using symmetry in CPHF.
          Requested convergence is 1.0D-08 RMS, and 1.0D-07 maximum.
          Secondary convergence is 1.0D-12 RMS, and 1.0D-12 maximum.
          NewPWx=T KeepS1=F KeepF1=F KeepIn=T MapXYZ=F SortEE=F KeepMc=T.
 Keep R1 ints in memory in symmetry-blocked form, NReq=4746626.
 FoFCou: FMM=F IPFlag=           0 FMFlag=           0 FMFlg1=           0
         NFxFlg=           0 DoJE=F BraDBF=F KetDBF=F FulRan=T
         wScrn=  0.000000 ICntrl=       600 IOpCl=  0 I1Cent=           0 NGrid=           0
         NMat0=    1 NMatS0=   1275 NMatT0=    0 NMatD0=    1 NMtDS0=    0 NMtDT0=    0
 Petite list used in FoFCou.
          MDV=    1572864000 using IRadAn=       1.
          Solving linear equations simultaneously, MaxMat=       0.
 FoF2E skips out because all densities are zero.
          There are     6 degrees of freedom in the 1st order CPHF.  IDoFFX=6 NUNeed=     3.
      3 vectors produced by pass  0 Test12= 6.15D-15 1.67D-08 XBig12= 8.06D+00 1.60D+00.
 AX will form     3 AO Fock derivatives at one time.
      3 vectors produced by pass  1 Test12= 6.15D-15 1.67D-08 XBig12= 5.50D-01 4.87D-01.
      3 vectors produced by pass  2 Test12= 6.15D-15 1.67D-08 XBig12= 1.33D-02 5.13D-02.
      3 vectors produced by pass  3 Test12= 6.15D-15 1.67D-08 XBig12= 7.28D-05 4.35D-03.
      3 vectors produced by pass  4 Test12= 6.15D-15 1.67D-08 XBig12= 1.84D-07 2.64D-04.
      3 vectors produced by pass  5 Test12= 6.15D-15 1.67D-08 XBig12= 2.01D-10 5.31D-06.
      3 vectors produced by pass  6 Test12= 6.15D-15 1.67D-08 XBig12= 7.12D-13 3.71D-07.
 InvSVY:  IOpt=1 It=  1 EMax= 1.24D-16
 Solved reduced A of dimension    21 with     3 vectors.
 FullF1:  Do perturbations      1 to       3.
 Isotropic polarizability for W=    0.000000       25.50 Bohr**3.
 End of Minotr F.D. properties file   721 does not exist.
 End of Minotr F.D. properties file   722 does not exist.
 End of Minotr F.D. properties file   788 does not exist.
 Leave Link 1002 at Wed Jun 19 08:44:12 2024, MaxMem=  1572864000 cpu:               2.1 elap:               0.3
 (Enter /software/sse/easybuild/prefix/software/Gaussian/16.C.01-avx2-nsc1/g16/l601.exe)
 Copying SCF densities to generalized density rwf, IOpCl= 0 IROHF=0.
 SCF density gives NOpUse= 48 NOpAll= 48.

 **********************************************************************

            Population analysis using the SCF Density.

 **********************************************************************

 Orbital symmetries:
 BldTbl:  Degeneracy threshold= 1.00D-02
       Occupied  (A1G) (A1G) (T1U) (T1U) (T1U) (A1G) (T1U) (T1U)
                 (T1U)
       Virtual   (T1U) (T1U) (T1U) (A1G) (EG) (EG) (T2G) (T2G)
                 (T2G) (T1U) (T1U) (T1U) (A1G) (T2G) (T2G) (T2G)
                 (EG) (EG) (?A) (?A) (?A) (A2U) (?A) (?A) (?A)
                 (EG) (EG) (T2G) (T2G) (T2G) (T1U) (T1U) (T1U)
                 (?A) (?A) (?A) (A2U) (?A) (?A) (?A) (A1G)
 The electronic state is 1-A1G.
 Alpha  occ. eigenvalues -- -104.50595 -10.22974  -7.69577  -7.69577  -7.69577
 Alpha  occ. eigenvalues --   -0.73351  -0.15034  -0.15034  -0.15034
 Alpha virt. eigenvalues --    0.28901   0.28901   0.28901   0.33933   0.59538
 Alpha virt. eigenvalues --    0.59538   0.59538   0.59538   0.59538   0.89553
 Alpha virt. eigenvalues --    0.89553   0.89553   1.20012   1.22157   1.22157
 Alpha virt. eigenvalues --    1.22157   1.22157   1.22157   1.46767   1.46767
 Alpha virt. eigenvalues --    1.46767   1.46767   1.46767   1.46767   1.46767
 Alpha virt. eigenvalues --    2.82683   2.82683   2.82683   2.82683   2.82683
 Alpha virt. eigenvalues --    2.98393   2.98393   2.98393   3.36941   3.36941
 Alpha virt. eigenvalues --    3.36941   3.36941   3.36941   3.36941   3.36941
 Alpha virt. eigenvalues --    5.36395
          Condensed to atoms (all electrons):
               1
     1  Cl  18.000000
 Mulliken charges:
               1
     1  Cl  -1.000000
 Sum of Mulliken charges =  -1.00000
 Mulliken charges with hydrogens summed into heavy atoms:
               1
     1  Cl  -1.000000
 APT charges:
               1
     1  Cl  -1.000000
 Sum of APT charges =  -1.00000
 APT charges with hydrogens summed into heavy atoms:
               1
     1  Cl  -1.000000
 DipInt: DoE/N= T F RetVal/Mat= T F Init=T NMatP=  1 IDeriv=0 Min/MaxMlt=  0  4
 Entering OneElI...
 OneElI was handed  1572853808 working-precision words.
 Multipole integrals L=0 to 4 MinM= 0 MaxM= 0.
 Requested accuracy = 0.1000D-12
 ShPair: Thresh= 1.00D-13 NBox=     0 BxSize= 0.00D+00 RnKept= 0.00D+00
         NSMCal=                  136 NSMKep=                 136
 PrmmSu-InSpLW:  IPartL=    0 NPrtUS=    1 NPrtUL=    1 DoSpLW=F IThBeg=    0 IThEnd=    0 NThAct=    1.
 PrSmSu:  IncTry=   512 NBBP=            136 NTPThr=   100 NPartT=    1 Incr=           1 LDynOK=F GPUOK=F.
 PrsmSu:  NPrtUS=   1 ThrOK=F IAlg=2 LenDen=           0 ISkipM=0 DoSpLW=F IThBeg=    0 IThEnd=    0.
 Prism:   IPart=     0 DynPar=F LinDyn=F Incr=           1.
 PRISM was handed  1572813138 working-precision words and   136 shell-pairs
 IPart=  0 NShTot=         136 NBatch=          36 AvBLen=         3.8
 PrsmSu-ThDecC:  IPartSL=    0    0 NPrtUSL=    1    1 IThBeg=    0 IThEnd=    0 CPU=   -1 GPU=   -1 NThAct=    1.
 PrSmSu:  NxtVal=              2.
 Electronic moments (au):
        -18.00000000         -0.00000000         -0.00000000         -0.00000000
        -12.81114561        -12.81114561        -12.81114561         -0.00000000
          0.00000000          0.00000000         -0.00000000         -0.00000000
         -0.00000000         -0.00000000         -0.00000000         -0.00000000
         -0.00000000         -0.00000000         -0.00000000         -0.00000000
        -77.89835324        -77.89835324        -77.89835324          0.00000000
          0.00000000          0.00000000          0.00000000          0.00000000
         -0.00000000        -25.96611775        -25.96611775        -25.96611775
         -0.00000000          0.00000000          0.00000000
 Electronic spatial extent (au):  <R**2>=             38.4334
 DipInt: DoE/N= F T RetVal/Mat= T F Init=T NMatP=  1 IDeriv=0 Min/MaxMlt=  0  4
 Nuclear    moments (au):
         17.00000000          0.00000000          0.00000000          0.00000000
          0.00000000          0.00000000          0.00000000          0.00000000
          0.00000000          0.00000000          0.00000000          0.00000000
          0.00000000          0.00000000          0.00000000          0.00000000
          0.00000000          0.00000000          0.00000000          0.00000000
          0.00000000          0.00000000          0.00000000          0.00000000
          0.00000000          0.00000000          0.00000000          0.00000000
          0.00000000          0.00000000          0.00000000          0.00000000
          0.00000000          0.00000000          0.00000000
 Total      moments (au):
         -1.00000000          0.00000000          0.00000000          0.00000000
        -12.81114561        -12.81114561        -12.81114561         -0.00000000
          0.00000000          0.00000000          0.00000000          0.00000000
          0.00000000          0.00000000          0.00000000          0.00000000
          0.00000000          0.00000000          0.00000000          0.00000000
        -77.89835324        -77.89835324        -77.89835324          0.00000000
          0.00000000          0.00000000          0.00000000          0.00000000
         -0.00000000        -25.96611775        -25.96611775        -25.96611775
         -0.00000000          0.00000000          0.00000000
 Charge=             -1.0000 electrons
 Dipole moment (field-independent basis, Debye):
    X=              0.0000    Y=              0.0000    Z=              0.0000  Tot=              0.0000
 Quadrupole moment (field-independent basis, Debye-Ang):
   XX=            -17.2314   YY=            -17.2314   ZZ=            -17.2314
   XY=             -0.0000   XZ=              0.0000   YZ=              0.0000
 Traceless Quadrupole moment (field-independent basis, Debye-Ang):
   XX=              0.0000   YY=              0.0000   ZZ=              0.0000
   XY=             -0.0000   XZ=              0.0000   YZ=              0.0000
 Octapole moment (field-independent basis, Debye-Ang**2):
  XXX=              0.0000  YYY=              0.0000  ZZZ=              0.0000  XYY=              0.0000
  XXY=              0.0000  XXZ=              0.0000  XZZ=              0.0000  YZZ=              0.0000
  YYZ=              0.0000  XYZ=              0.0000
 Hexadecapole moment (field-independent basis, Debye-Ang**3):
 XXXX=            -29.3403 YYYY=            -29.3403 ZZZZ=            -29.3403 XXXY=              0.0000
 XXXZ=              0.0000 YYYX=              0.0000 YYYZ=              0.0000 ZZZX=              0.0000
 ZZZY=             -0.0000 XXYY=             -9.7801 XXZZ=             -9.7801 YYZZ=             -9.7801
 XXYZ=             -0.0000 YYXZ=              0.0000 ZZXY=              0.0000
 N-N= 0.000000000000D+00 E-N=-1.100704756606D+03  KE= 4.595728133403D+02
 Symmetry AG   KE= 3.237348801657D+02
 Symmetry B1G  KE= 3.722473516259D-61
 Symmetry B2G  KE= 4.215245452863D-61
 Symmetry B3G  KE= 3.229663733766D-61
 Symmetry AU   KE= 1.025200003038D-60
 Symmetry B1U  KE= 4.527931105817D+01
 Symmetry B2U  KE= 4.527931105817D+01
 Symmetry B3U  KE= 4.527931105817D+01
 SetAtRh:  ITypeU=  23 NETotI=      -1 ICharg=  0 NETot=      17.
 StAtR1:  I=    1 I1=    1 IA= 17 C=  17.0 OKShel=TTTTT
                                                  SSPSP
                                                  22625
          I=    1 IA= 17 I1=    1 NAtG=27 NE=  17.000 C=  17.000 Err= 2.05D-11
 Pruned (  99, 590) grid will be used in numerical quadrature.
 IPart=  0 IRanGd=          0 ScrnBf=T ScrnGd=T RCrit=4.00D+00 DoMicB=T.
 Pruned (  99, 590) grid will be used in numerical quadrature.
 IPart=  4 IRanGd=          0 ScrnBf=T ScrnGd=T RCrit=4.00D+00 DoMicB=T.
 Pruned (  99, 590) grid will be used in numerical quadrature.
 CutRad = 1000.00    CtRdIn =    0.00    XCrit =  15.00   ICut = 0
 CutRad = 1000.00    CtRdIn =    0.00    XCrit =  15.00   ICut = 0
 Pruned (  99, 590) grid will be used in numerical quadrature.
 IPart=  7 IRanGd=          0 ScrnBf=T ScrnGd=T RCrit=4.00D+00 DoMicB=T.
 IPart=  2 IRanGd=          0 ScrnBf=T ScrnGd=T RCrit=4.00D+00 DoMicB=T.
 CutRad = 1000.00    CtRdIn =    0.00    XCrit =  15.00   ICut = 0
 CutRad = 1000.00    CtRdIn =    0.00    XCrit =  15.00   ICut = 0
 Pruned (  99, 590) grid will be used in numerical quadrature.
 Pruned (  99, 590) grid will be used in numerical quadrature.
 Pruned (  99, 590) grid will be used in numerical quadrature.
 IPart=  1 IRanGd=          0 ScrnBf=T ScrnGd=T RCrit=4.00D+00 DoMicB=T.
 IPart=  0 Atom number   1 atomic number 17 has       22100 grid points.
 IPart=  7 Atom number   1 atomic number 17 has       22100 grid points.
 Pruned (  99, 590) grid will be used in numerical quadrature.
 Pruned (  99, 590) grid will be used in numerical quadrature.
 IPart=  2 Atom number   1 atomic number 17 has       22100 grid points.
 IPart=  4 Atom number   1 atomic number 17 has       22100 grid points.
 CutRad = 1000.00    CtRdIn =    0.00    XCrit =  15.00   ICut = 0
 Pruned (  99, 590) grid will be used in numerical quadrature.
 IPart=  4 Atom   1 batch    1 overlaps    1 atoms,    16 shells and     1 DB shells.   NGrid=      2064
 IPart=  7 Atom   1 batch    2 overlaps    1 atoms,    16 shells and     1 DB shells.   NGrid=      2716
 IPart=  0 Atom   1 batch    3 overlaps    1 atoms,    16 shells and     1 DB shells.   NGrid=      2718
 IPart=  3 IRanGd=          0 ScrnBf=T ScrnGd=T RCrit=4.00D+00 DoMicB=T.
 IPart=  2 Atom   1 batch    4 overlaps    1 atoms,    16 shells and     1 DB shells.   NGrid=      1180
 CutRad = 1000.00    CtRdIn =    0.00    XCrit =  15.00   ICut = 0
 Pruned (  99, 590) grid will be used in numerical quadrature.
 Symmetry reduced    86 angular points to    86 for atom    1.
 IPart=  6 IRanGd=          0 ScrnBf=T ScrnGd=T RCrit=4.00D+00 DoMicB=T.
 CutRad = 1000.00    CtRdIn =    0.00    XCrit =  15.00   ICut = 0
 Symmetry reduced   590 angular points to   590 for atom    1.
 Pruned (  99, 590) grid will be used in numerical quadrature.
 Symmetry reduced   194 angular points to   194 for atom    1.
 IPart=  3 Atom number   1 atomic number 17 has       22100 grid points.
 IPart=  3 Atom   1 batch    6 overlaps    1 atoms,    16 shells and     1 DB shells.   NGrid=      1180
 Pruned (  99, 590) grid will be used in numerical quadrature.
 Pruned (  99, 590) grid will be used in numerical quadrature.
 Symmetry reduced   590 angular points to   590 for atom    1.
 IPart=  1 Atom number   1 atomic number 17 has       22100 grid points.
 IPart=  1 Atom   1 batch    5 overlaps    1 atoms,    16 shells and     1 DB shells.   NGrid=      1180
 IPart=  6 Atom number   1 atomic number 17 has       22100 grid points.
 Symmetry reduced   302 angular points to   302 for atom    1.
 Symmetry reduced   590 angular points to   590 for atom    1.
 IPart=  6 Atom   1 batch    7 overlaps    1 atoms,    16 shells and     1 DB shells.   NGrid=      1180
 Symmetry reduced   590 angular points to   590 for atom    1.
 Pruned (  99, 590) grid will be used in numerical quadrature.
 IPart=  5 IRanGd=          0 ScrnBf=T ScrnGd=T RCrit=4.00D+00 DoMicB=T.
 CutRad = 1000.00    CtRdIn =    0.00    XCrit =  15.00   ICut = 0
 Pruned (  99, 590) grid will be used in numerical quadrature.
 IPart=  5 Atom number   1 atomic number 17 has       22100 grid points.
 IPart=  5 Atom   1 batch    8 overlaps    1 atoms,    16 shells and     1 DB shells.   NGrid=      1180
 Symmetry reduced   590 angular points to   590 for atom    1.
 IPart=  1 Atom   1 batch    9 overlaps    1 atoms,    15 shells and     1 DB shells.   NGrid=      1180
 IPart=  6 Atom   1 batch   10 overlaps    1 atoms,    15 shells and     1 DB shells.   NGrid=      1180
 IPart=  2 Atom   1 batch   12 overlaps    1 atoms,    13 shells and     1 DB shells.   NGrid=       604
 IPart=  5 Atom   1 batch   13 overlaps    1 atoms,    13 shells and     1 DB shells.   NGrid=       604
 Symmetry reduced   302 angular points to   302 for atom    1.
 IPart=  3 Atom   1 batch   11 overlaps    1 atoms,    13 shells and     1 DB shells.   NGrid=       604
 Symmetry reduced   302 angular points to   302 for atom    1.
 Symmetry reduced   302 angular points to   302 for atom    1.
 IPart=  4 Atom   1 batch   14 overlaps    1 atoms,    10 shells and     1 DB shells.   NGrid=       604
 Symmetry reduced   302 angular points to   302 for atom    1.
 IPart=  2 Atom   1 batch   15 overlaps    1 atoms,     9 shells and     1 DB shells.   NGrid=       604
 IPart=  3 Atom   1 batch   16 overlaps    1 atoms,     8 shells and     1 DB shells.   NGrid=       604
 IPart=  5 Atom   1 batch   17 overlaps    1 atoms,     5 shells and     1 DB shells.   NGrid=       604
 IPart=  1 Atom   1 batch   18 overlaps    1 atoms,     4 shells and     0 DB shells.   NGrid=       604
 Symmetry reduced   302 angular points to   302 for atom    1.
 IPart=  7 Atom   1 batch   19 overlaps    1 atoms,     2 shells and     0 DB shells.   NGrid=       604
 IPart=  6 Atom   1 batch   20 overlaps    1 atoms,     1 shells and     0 DB shells.   NGrid=       604
 Symmetry reduced   302 angular points to   302 for atom    1.
 IPart=  0 Atom   1 batch   21 overlaps    1 atoms,     0 shells and     0 DB shells.   NGrid=       302
 Symmetry reduced   302 angular points to   302 for atom    1.
 There are a total of       21798 grid points.
 ElSum from          density=       17.9999999981
 ElSum from atomic densities=       17.0000000033

 Hirshfeld populations at iteration   1 (CX, CA, CB, DipXYZ):
               1          2          3          4          5          6
     1  Cl   0.000686   9.000000   9.000000   0.000000  -0.000000  -0.000000
       Tot   0.000686   9.000000   9.000000   0.000000  -0.000000  -0.000000

 Dip from Atomic Chgs              0.000000   0.000000   0.000000
         Total Dipole              0.000000  -0.000000  -0.000000

 Hirshfeld charges, spin densities, dipoles, and CM5 charges using IRadAn=      5:
              Q-H        S-H        Dx         Dy         Dz        Q-CM5   
     1  Cl  -1.000000   0.000000   0.000000  -0.000000  -0.000000  -1.000000
       Tot  -1.000000   0.000000   0.000000  -0.000000  -0.000000  -1.000000
 Hirshfeld charges with hydrogens summed into heavy atoms:
              Q-H       Q-CM5   
     1  Cl  -1.000000  -1.000000
 
 EQQ=  0.00000000000     EQD=  0.00000000000     EDD=  0.00000000000    
 EQQ+QD+DD=  0.00000000000    
 
  Exact polarizability:      25.498       0.000      25.498       0.000       0.000      25.498
 Approx polarizability:      22.104      -0.000      22.104      -0.000      -0.000      22.104
 Entering OneElI...
 OneElI was handed  1572856483 working-precision words.
 Calculate electrostatic properties
    NBasis =    50  MinDer = 0  MaxDer = 0
    NGrid  =     1  NMatD  =   1
 Requested accuracy = 0.1000D-12
 ShPair: Thresh= 1.00D-13 NBox=     0 BxSize= 0.00D+00 RnKept= 0.00D+00
         NSMCal=                  136 NSMKep=                  99
 PrmmSu-InSpLW:  IPartL=    0 NPrtUS=    8 NPrtUL=    1 DoSpLW=F IThBeg=    0 IThEnd=    7 NThAct=    8.
 PrSmSu:  IncTry=   512 NBBP=             99 NTPThr=   100 NPartT=    8 Incr=           1 LDynOK=F GPUOK=F.
 PrsmSu:  NPrtUS=   8 ThrOK=T IAlg=2 LenDen=           0 ISkipM=0 DoSpLW=F IThBeg=    0 IThEnd=    7.
 Prism:   IPart=     0 DynPar=F LinDyn=F Incr=           1.
 PRISM was handed   196592342 working-precision words and    99 shell-pairs
 PRISM was handed   196592342 working-precision words and    99 shell-pairs
 PRISM was handed   196592342 working-precision words and    99 shell-pairs
 PRISM was handed   196592342 working-precision words and    99 shell-pairs
 PRISM was handed   196592342 working-precision words and    99 shell-pairs
 PRISM was handed   196592342 working-precision words and    99 shell-pairs
 PRISM was handed   196592342 working-precision words and    99 shell-pairs
 PRISM was handed   196592342 working-precision words and    99 shell-pairs
 IPart=  6 NShTot=           2 NBatch=           2 AvBLen=         1.0
 PrsmSu-ThDecC:  IPartSL=    6    0 NPrtUSL=    8    1 IThBeg=    0 IThEnd=    7 CPU=   -1 GPU=   -1 NThAct=    8.
 IPart=  0 NShTot=          30 NBatch=          30 AvBLen=         1.0
 PrsmSu-ThDecC:  IPartSL=    0    0 NPrtUSL=    8    1 IThBeg=    0 IThEnd=    7 CPU=   -1 GPU=   -1 NThAct=    7.
 IPart=  7 NShTot=           2 NBatch=           2 AvBLen=         1.0
 PrsmSu-ThDecC:  IPartSL=    7    0 NPrtUSL=    8    1 IThBeg=    0 IThEnd=    7 CPU=   -1 GPU=   -1 NThAct=    6.
 IPart=  4 NShTot=           9 NBatch=           9 AvBLen=         1.0
 PrsmSu-ThDecC:  IPartSL=    4    0 NPrtUSL=    8    1 IThBeg=    0 IThEnd=    7 CPU=   -1 GPU=   -1 NThAct=    5.
 IPart=  3 NShTot=           9 NBatch=           9 AvBLen=         1.0
 PrsmSu-ThDecC:  IPartSL=    3    0 NPrtUSL=    8    1 IThBeg=    0 IThEnd=    7 CPU=   -1 GPU=   -1 NThAct=    4.
 IPart=  5 NShTot=           9 NBatch=           9 AvBLen=         1.0
 IPart=  2 NShTot=          16 NBatch=          16 AvBLen=         1.0
 IPart=  1 NShTot=          22 NBatch=          22 AvBLen=         1.0
 PrsmSu-ThDecC:  IPartSL=    5    0 NPrtUSL=    8    1 IThBeg=    0 IThEnd=    7 CPU=   -1 GPU=   -1 NThAct=    3.
 PrsmSu-ThDecC:  IPartSL=    2    0 NPrtUSL=    8    1 IThBeg=    0 IThEnd=    7 CPU=   -1 GPU=   -1 NThAct=    2.
 PrsmSu-ThDecC:  IPartSL=    1    0 NPrtUSL=    8    1 IThBeg=    0 IThEnd=    7 CPU=   -1 GPU=   -1 NThAct=    1.
 PrSmSu:  NxtVal=              9.
 --------------------------------------------------------
       Center         ----      EFG at Nuclei      ----
                      3XX-RR        3YY-RR        3ZZ-RR
 --------------------------------------------------------
     1   Atom        0.000000      0.000000      0.000000
 --------------------------------------------------------
                        XY            XZ            YZ
 --------------------------------------------------------
     1   Atom        0.000000      0.000000      0.000000
 --------------------------------------------------------


 ---------------------------------------------------------------------------------
              Nuclear Quadrupole Coupling Constant in Principal Axis System
 ---------------------------------------------------------------------------------

       Atom             a.u.   MegaHertz   Gauss  10(-4) cm-1        Axes

              Baa     0.0000     0.000     0.000     0.000  1.0000  0.0000  0.0000
     1 Cl(35) Bbb     0.0000     0.000     0.000     0.000 -0.0000  1.0000  0.0000
              Bcc     0.0000     0.000     0.000     0.000  0.0000  0.0000  1.0000
 

 ---------------------------------------------------------------------------------

 No NMR shielding tensors so no spin-rotation constants.
 Leave Link  601 at Wed Jun 19 08:44:12 2024, MaxMem=  1572864000 cpu:               1.0 elap:               0.2
 (Enter /software/sse/easybuild/prefix/software/Gaussian/16.C.01-avx2-nsc1/g16/l602.exe)
 FitSet:  NAtFit=     1 NAtPot=     1 NAtFrz=     0 MDM=     5 TotChg=  -1.00000
 Merz-Kollman atomic radii used.
 Read replacement radii for each type of atom:
 Atom Element Radius
    1    17    1.70
 Generate VDW surfaces: Layer= 4 Dens= 6 Start= 1.400 Inc= 0.200

 **********************************************************************

            Electrostatic Properties Using The SCF Density.

 **********************************************************************

       Atomic Center    1 is at   0.000000  0.000000  0.000000
      ESP Fit Center    2 is at   0.000000  0.000000  2.380000
      ESP Fit Center    3 is at   0.413283  0.000000  2.343842
      ESP Fit Center    4 is at   0.206641  0.357913  2.343842
      ESP Fit Center    5 is at  -0.206641  0.357913  2.343842
      ESP Fit Center    6 is at  -0.413283  0.000000  2.343842
      ESP Fit Center    7 is at  -0.206641 -0.357913  2.343842
      ESP Fit Center    8 is at   0.206641 -0.357913  2.343842
      ESP Fit Center    9 is at   0.814008  0.000000  2.236468
      ESP Fit Center   10 is at   0.704952  0.407004  2.236468
      ESP Fit Center   11 is at   0.407004  0.704952  2.236468
      ESP Fit Center   12 is at   0.000000  0.814008  2.236468
      ESP Fit Center   13 is at  -0.407004  0.704952  2.236468
      ESP Fit Center   14 is at  -0.704952  0.407004  2.236468
      ESP Fit Center   15 is at  -0.814008  0.000000  2.236468
      ESP Fit Center   16 is at  -0.704952 -0.407004  2.236468
      ESP Fit Center   17 is at  -0.407004 -0.704952  2.236468
      ESP Fit Center   18 is at  -0.000000 -0.814008  2.236468
      ESP Fit Center   19 is at   0.407004 -0.704952  2.236468
      ESP Fit Center   20 is at   0.704952 -0.407004  2.236468
      ESP Fit Center   21 is at   1.190000  0.000000  2.061140
      ESP Fit Center   22 is at   1.118234  0.407004  2.061140
      ESP Fit Center   23 is at   0.911593  0.764917  2.061140
      ESP Fit Center   24 is at   0.595000  1.030570  2.061140
      ESP Fit Center   25 is at   0.206641  1.171921  2.061140
      ESP Fit Center   26 is at  -0.206641  1.171921  2.061140
      ESP Fit Center   27 is at  -0.595000  1.030570  2.061140
      ESP Fit Center   28 is at  -0.911593  0.764917  2.061140
      ESP Fit Center   29 is at  -1.118234  0.407004  2.061140
      ESP Fit Center   30 is at  -1.190000  0.000000  2.061140
      ESP Fit Center   31 is at  -1.118234 -0.407004  2.061140
      ESP Fit Center   32 is at  -0.911593 -0.764917  2.061140
      ESP Fit Center   33 is at  -0.595000 -1.030570  2.061140
      ESP Fit Center   34 is at  -0.206641 -1.171921  2.061140
      ESP Fit Center   35 is at   0.206641 -1.171921  2.061140
      ESP Fit Center   36 is at   0.595000 -1.030570  2.061140
      ESP Fit Center   37 is at   0.911593 -0.764917  2.061140
      ESP Fit Center   38 is at   1.118234 -0.407004  2.061140
      ESP Fit Center   39 is at   1.529835  0.000000  1.823186
      ESP Fit Center   40 is at   1.473104  0.412744  1.823186
      ESP Fit Center   41 is at   1.307120  0.794877  1.823186
      ESP Fit Center   42 is at   1.044193  1.118058  1.823186
      ESP Fit Center   43 is at   0.703823  1.358317  1.823186
      ESP Fit Center   44 is at   0.311254  1.497837  1.823186
      ESP Fit Center   45 is at  -0.104400  1.526268  1.823186
      ESP Fit Center   46 is at  -0.512310  1.441503  1.823186
      ESP Fit Center   47 is at  -0.882225  1.249829  1.823186
      ESP Fit Center   48 is at  -1.186710  0.965460  1.823186
      ESP Fit Center   49 is at  -1.403182  0.609488  1.823186
      ESP Fit Center   50 is at  -1.515586  0.208312  1.823186
      ESP Fit Center   51 is at  -1.515586 -0.208312  1.823186
      ESP Fit Center   52 is at  -1.403182 -0.609488  1.823186
      ESP Fit Center   53 is at  -1.186710 -0.965460  1.823186
      ESP Fit Center   54 is at  -0.882225 -1.249829  1.823186
      ESP Fit Center   55 is at  -0.512310 -1.441503  1.823186
      ESP Fit Center   56 is at  -0.104400 -1.526268  1.823186
      ESP Fit Center   57 is at   0.311254 -1.497837  1.823186
      ESP Fit Center   58 is at   0.703823 -1.358317  1.823186
      ESP Fit Center   59 is at   1.044193 -1.118058  1.823186
      ESP Fit Center   60 is at   1.307120 -0.794877  1.823186
      ESP Fit Center   61 is at   1.473104 -0.412744  1.823186
      ESP Fit Center   62 is at   1.823186  0.000000  1.529835
      ESP Fit Center   63 is at   1.774042  0.420456  1.529835
      ESP Fit Center   64 is at   1.629258  0.818244  1.529835
      ESP Fit Center   65 is at   1.396641  1.171921  1.529835
      ESP Fit Center   66 is at   1.088731  1.462420  1.529835
      ESP Fit Center   67 is at   0.722127  1.674079  1.529835
      ESP Fit Center   68 is at   0.316593  1.795487  1.529835
      ESP Fit Center   69 is at  -0.106009  1.820101  1.529835
      ESP Fit Center   70 is at  -0.522896  1.746593  1.529835
      ESP Fit Center   71 is at  -0.911593  1.578925  1.529835
      ESP Fit Center   72 is at  -1.251146  1.326137  1.529835
      ESP Fit Center   73 is at  -1.523249  1.001857  1.529835
      ESP Fit Center   74 is at  -1.713234  0.623566  1.529835
      ESP Fit Center   75 is at  -1.810858  0.211659  1.529835
      ESP Fit Center   76 is at  -1.810858 -0.211659  1.529835
      ESP Fit Center   77 is at  -1.713234 -0.623566  1.529835
      ESP Fit Center   78 is at  -1.523249 -1.001857  1.529835
      ESP Fit Center   79 is at  -1.251146 -1.326137  1.529835
      ESP Fit Center   80 is at  -0.911593 -1.578925  1.529835
      ESP Fit Center   81 is at  -0.522896 -1.746593  1.529835
      ESP Fit Center   82 is at  -0.106009 -1.820101  1.529835
      ESP Fit Center   83 is at   0.316593 -1.795487  1.529835
      ESP Fit Center   84 is at   0.722127 -1.674079  1.529835
      ESP Fit Center   85 is at   1.088731 -1.462420  1.529835
      ESP Fit Center   86 is at   1.396641 -1.171921  1.529835
      ESP Fit Center   87 is at   1.629258 -0.818244  1.529835
      ESP Fit Center   88 is at   1.774042 -0.420456  1.529835
      ESP Fit Center   89 is at   2.061140  0.000000  1.190000
      ESP Fit Center   90 is at   2.018949  0.414905  1.190000
      ESP Fit Center   91 is at   1.894101  0.812823  1.190000
      ESP Fit Center   92 is at   1.691709  1.177464  1.190000
      ESP Fit Center   93 is at   1.420058  1.493900  1.190000
      ESP Fit Center   94 is at   1.090269  1.749175  1.190000
      ESP Fit Center   95 is at   0.715845  1.932839  1.190000
      ESP Fit Center   96 is at   0.312114  2.037372  1.190000
      ESP Fit Center   97 is at  -0.104395  2.058495  1.190000
      ESP Fit Center   98 is at  -0.516630  1.995343  1.190000
      ESP Fit Center   99 is at  -0.907714  1.850501  1.190000
      ESP Fit Center  100 is at  -1.261636  1.629900  1.190000
      ESP Fit Center  101 is at  -1.563907  1.342570  1.190000
      ESP Fit Center  102 is at  -1.802151  1.000276  1.190000
      ESP Fit Center  103 is at  -1.966615  0.617029  1.190000
      ESP Fit Center  104 is at  -2.050565  0.208522  1.190000
      ESP Fit Center  105 is at  -2.050565 -0.208522  1.190000
      ESP Fit Center  106 is at  -1.966615 -0.617029  1.190000
      ESP Fit Center  107 is at  -1.802151 -1.000276  1.190000
      ESP Fit Center  108 is at  -1.563907 -1.342570  1.190000
      ESP Fit Center  109 is at  -1.261636 -1.629900  1.190000
      ESP Fit Center  110 is at  -0.907714 -1.850501  1.190000
      ESP Fit Center  111 is at  -0.516630 -1.995343  1.190000
      ESP Fit Center  112 is at  -0.104395 -2.058495  1.190000
      ESP Fit Center  113 is at   0.312114 -2.037372  1.190000
      ESP Fit Center  114 is at   0.715845 -1.932839  1.190000
      ESP Fit Center  115 is at   1.090269 -1.749175  1.190000
      ESP Fit Center  116 is at   1.420058 -1.493900  1.190000
      ESP Fit Center  117 is at   1.691709 -1.177464  1.190000
      ESP Fit Center  118 is at   1.894101 -0.812823  1.190000
      ESP Fit Center  119 is at   2.018949 -0.414905  1.190000
      ESP Fit Center  120 is at   2.236468  0.000000  0.814008
      ESP Fit Center  121 is at   2.196053  0.423254  0.814008
      ESP Fit Center  122 is at   2.076266  0.831211  0.814008
      ESP Fit Center  123 is at   1.881437  1.209126  0.814008
      ESP Fit Center  124 is at   1.618608  1.543340  0.814008
      ESP Fit Center  125 is at   1.297279  1.821773  0.814008
      ESP Fit Center  126 is at   0.929063  2.034363  0.814008
      ESP Fit Center  127 is at   0.527267  2.173426  0.814008
      ESP Fit Center  128 is at   0.106415  2.233935  0.814008
      ESP Fit Center  129 is at  -0.318283  2.213704  0.814008
      ESP Fit Center  130 is at  -0.731477  2.113465  0.814008
      ESP Fit Center  131 is at  -1.118234  1.936838  0.814008
      ESP Fit Center  132 is at  -1.464575  1.690210  0.814008
      ESP Fit Center  133 is at  -1.757983  1.382493  0.814008
      ESP Fit Center  134 is at  -1.987852  1.024809  0.814008
      ESP Fit Center  135 is at  -2.145876  0.630086  0.814008
      ESP Fit Center  136 is at  -2.226342  0.212590  0.814008
      ESP Fit Center  137 is at  -2.226342 -0.212590  0.814008
      ESP Fit Center  138 is at  -2.145876 -0.630086  0.814008
      ESP Fit Center  139 is at  -1.987852 -1.024809  0.814008
      ESP Fit Center  140 is at  -1.757983 -1.382493  0.814008
      ESP Fit Center  141 is at  -1.464575 -1.690210  0.814008
      ESP Fit Center  142 is at  -1.118234 -1.936838  0.814008
      ESP Fit Center  143 is at  -0.731477 -2.113465  0.814008
      ESP Fit Center  144 is at  -0.318283 -2.213704  0.814008
      ESP Fit Center  145 is at   0.106415 -2.233935  0.814008
      ESP Fit Center  146 is at   0.527267 -2.173426  0.814008
      ESP Fit Center  147 is at   0.929063 -2.034363  0.814008
      ESP Fit Center  148 is at   1.297279 -1.821773  0.814008
      ESP Fit Center  149 is at   1.618608 -1.543340  0.814008
      ESP Fit Center  150 is at   1.881437 -1.209126  0.814008
      ESP Fit Center  151 is at   2.076266 -0.831211  0.814008
      ESP Fit Center  152 is at   2.196053 -0.423254  0.814008
      ESP Fit Center  153 is at   2.343842  0.000000  0.413283
      ESP Fit Center  154 is at   2.306176  0.418509  0.413283
      ESP Fit Center  155 is at   2.194387  0.823567  0.413283
      ESP Fit Center  156 is at   2.012069  1.202155  0.413283
      ESP Fit Center  157 is at   1.765081  1.542105  0.413283
      ESP Fit Center  158 is at   1.461362  1.832490  0.413283
      ESP Fit Center  159 is at   1.110673  2.063977  0.413283
      ESP Fit Center  160 is at   0.724287  2.229127  0.413283
      ESP Fit Center  161 is at   0.314622  2.322630  0.413283
      ESP Fit Center  162 is at  -0.105156  2.341482  0.413283
      ESP Fit Center  163 is at  -0.521554  2.285077  0.413283
      ESP Fit Center  164 is at  -0.921189  2.155228  0.413283
      ESP Fit Center  165 is at  -1.291216  1.956108  0.413283
      ESP Fit Center  166 is at  -1.619742  1.694117  0.413283
      ESP Fit Center  167 is at  -1.896208  1.377676  0.413283
      ESP Fit Center  168 is at  -2.111729  1.016955  0.413283
      ESP Fit Center  169 is at  -2.259377  0.623548  0.413283
      ESP Fit Center  170 is at  -2.334407  0.210100  0.413283
      ESP Fit Center  171 is at  -2.334407 -0.210100  0.413283
      ESP Fit Center  172 is at  -2.259377 -0.623548  0.413283
      ESP Fit Center  173 is at  -2.111729 -1.016955  0.413283
      ESP Fit Center  174 is at  -1.896208 -1.377676  0.413283
      ESP Fit Center  175 is at  -1.619742 -1.694117  0.413283
      ESP Fit Center  176 is at  -1.291216 -1.956108  0.413283
      ESP Fit Center  177 is at  -0.921189 -2.155228  0.413283
      ESP Fit Center  178 is at  -0.521554 -2.285077  0.413283
      ESP Fit Center  179 is at  -0.105156 -2.341482  0.413283
      ESP Fit Center  180 is at   0.314622 -2.322630  0.413283
      ESP Fit Center  181 is at   0.724287 -2.229127  0.413283
      ESP Fit Center  182 is at   1.110673 -2.063977  0.413283
      ESP Fit Center  183 is at   1.461362 -1.832490  0.413283
      ESP Fit Center  184 is at   1.765081 -1.542105  0.413283
      ESP Fit Center  185 is at   2.012069 -1.202155  0.413283
      ESP Fit Center  186 is at   2.194387 -0.823567  0.413283
      ESP Fit Center  187 is at   2.306176 -0.418509  0.413283
      ESP Fit Center  188 is at   2.380000  0.000000  0.000000
      ESP Fit Center  189 is at   2.343842  0.413283  0.000000
      ESP Fit Center  190 is at   2.236468  0.814008  0.000000
      ESP Fit Center  191 is at   2.061140  1.190000  0.000000
      ESP Fit Center  192 is at   1.823186  1.529835  0.000000
      ESP Fit Center  193 is at   1.529835  1.823186  0.000000
      ESP Fit Center  194 is at   1.190000  2.061140  0.000000
      ESP Fit Center  195 is at   0.814008  2.236468  0.000000
      ESP Fit Center  196 is at   0.413283  2.343842  0.000000
      ESP Fit Center  197 is at   0.000000  2.380000  0.000000
      ESP Fit Center  198 is at  -0.413283  2.343842  0.000000
      ESP Fit Center  199 is at  -0.814008  2.236468  0.000000
      ESP Fit Center  200 is at  -1.190000  2.061140  0.000000
      ESP Fit Center  201 is at  -1.529835  1.823186  0.000000
      ESP Fit Center  202 is at  -1.823186  1.529835  0.000000
      ESP Fit Center  203 is at  -2.061140  1.190000  0.000000
      ESP Fit Center  204 is at  -2.236468  0.814008  0.000000
      ESP Fit Center  205 is at  -2.343842  0.413283  0.000000
      ESP Fit Center  206 is at  -2.380000  0.000000  0.000000
      ESP Fit Center  207 is at  -2.343842 -0.413283  0.000000
      ESP Fit Center  208 is at  -2.236468 -0.814008  0.000000
      ESP Fit Center  209 is at  -2.061140 -1.190000  0.000000
      ESP Fit Center  210 is at  -1.823186 -1.529835  0.000000
      ESP Fit Center  211 is at  -1.529835 -1.823186  0.000000
      ESP Fit Center  212 is at  -1.190000 -2.061140  0.000000
      ESP Fit Center  213 is at  -0.814008 -2.236468  0.000000
      ESP Fit Center  214 is at  -0.413283 -2.343842  0.000000
      ESP Fit Center  215 is at  -0.000000 -2.380000  0.000000
      ESP Fit Center  216 is at   0.413283 -2.343842  0.000000
      ESP Fit Center  217 is at   0.814008 -2.236468  0.000000
      ESP Fit Center  218 is at   1.190000 -2.061140  0.000000
      ESP Fit Center  219 is at   1.529835 -1.823186  0.000000
      ESP Fit Center  220 is at   1.823186 -1.529835  0.000000
      ESP Fit Center  221 is at   2.061140 -1.190000  0.000000
      ESP Fit Center  222 is at   2.236468 -0.814008  0.000000
      ESP Fit Center  223 is at   2.343842 -0.413283  0.000000
      ESP Fit Center  224 is at   2.343842  0.000000 -0.413283
      ESP Fit Center  225 is at   2.306176  0.418509 -0.413283
      ESP Fit Center  226 is at   2.194387  0.823567 -0.413283
      ESP Fit Center  227 is at   2.012069  1.202155 -0.413283
      ESP Fit Center  228 is at   1.765081  1.542105 -0.413283
      ESP Fit Center  229 is at   1.461362  1.832490 -0.413283
      ESP Fit Center  230 is at   1.110673  2.063977 -0.413283
      ESP Fit Center  231 is at   0.724287  2.229127 -0.413283
      ESP Fit Center  232 is at   0.314622  2.322630 -0.413283
      ESP Fit Center  233 is at  -0.105156  2.341482 -0.413283
      ESP Fit Center  234 is at  -0.521554  2.285077 -0.413283
      ESP Fit Center  235 is at  -0.921189  2.155228 -0.413283
      ESP Fit Center  236 is at  -1.291216  1.956108 -0.413283
      ESP Fit Center  237 is at  -1.619742  1.694117 -0.413283
      ESP Fit Center  238 is at  -1.896208  1.377676 -0.413283
      ESP Fit Center  239 is at  -2.111729  1.016955 -0.413283
      ESP Fit Center  240 is at  -2.259377  0.623548 -0.413283
      ESP Fit Center  241 is at  -2.334407  0.210100 -0.413283
      ESP Fit Center  242 is at  -2.334407 -0.210100 -0.413283
      ESP Fit Center  243 is at  -2.259377 -0.623548 -0.413283
      ESP Fit Center  244 is at  -2.111729 -1.016955 -0.413283
      ESP Fit Center  245 is at  -1.896208 -1.377676 -0.413283
      ESP Fit Center  246 is at  -1.619742 -1.694117 -0.413283
      ESP Fit Center  247 is at  -1.291216 -1.956108 -0.413283
      ESP Fit Center  248 is at  -0.921189 -2.155228 -0.413283
      ESP Fit Center  249 is at  -0.521554 -2.285077 -0.413283
      ESP Fit Center  250 is at  -0.105156 -2.341482 -0.413283
      ESP Fit Center  251 is at   0.314622 -2.322630 -0.413283
      ESP Fit Center  252 is at   0.724287 -2.229127 -0.413283
      ESP Fit Center  253 is at   1.110673 -2.063977 -0.413283
      ESP Fit Center  254 is at   1.461362 -1.832490 -0.413283
      ESP Fit Center  255 is at   1.765081 -1.542105 -0.413283
      ESP Fit Center  256 is at   2.012069 -1.202155 -0.413283
      ESP Fit Center  257 is at   2.194387 -0.823567 -0.413283
      ESP Fit Center  258 is at   2.306176 -0.418509 -0.413283
      ESP Fit Center  259 is at   2.236468  0.000000 -0.814008
      ESP Fit Center  260 is at   2.196053  0.423254 -0.814008
      ESP Fit Center  261 is at   2.076266  0.831211 -0.814008
      ESP Fit Center  262 is at   1.881437  1.209126 -0.814008
      ESP Fit Center  263 is at   1.618608  1.543340 -0.814008
      ESP Fit Center  264 is at   1.297279  1.821773 -0.814008
      ESP Fit Center  265 is at   0.929063  2.034363 -0.814008
      ESP Fit Center  266 is at   0.527267  2.173426 -0.814008
      ESP Fit Center  267 is at   0.106415  2.233935 -0.814008
      ESP Fit Center  268 is at  -0.318283  2.213704 -0.814008
      ESP Fit Center  269 is at  -0.731477  2.113465 -0.814008
      ESP Fit Center  270 is at  -1.118234  1.936838 -0.814008
      ESP Fit Center  271 is at  -1.464575  1.690210 -0.814008
      ESP Fit Center  272 is at  -1.757983  1.382493 -0.814008
      ESP Fit Center  273 is at  -1.987852  1.024809 -0.814008
      ESP Fit Center  274 is at  -2.145876  0.630086 -0.814008
      ESP Fit Center  275 is at  -2.226342  0.212590 -0.814008
      ESP Fit Center  276 is at  -2.226342 -0.212590 -0.814008
      ESP Fit Center  277 is at  -2.145876 -0.630086 -0.814008
      ESP Fit Center  278 is at  -1.987852 -1.024809 -0.814008
      ESP Fit Center  279 is at  -1.757983 -1.382493 -0.814008
      ESP Fit Center  280 is at  -1.464575 -1.690210 -0.814008
      ESP Fit Center  281 is at  -1.118234 -1.936838 -0.814008
      ESP Fit Center  282 is at  -0.731477 -2.113465 -0.814008
      ESP Fit Center  283 is at  -0.318283 -2.213704 -0.814008
      ESP Fit Center  284 is at   0.106415 -2.233935 -0.814008
      ESP Fit Center  285 is at   0.527267 -2.173426 -0.814008
      ESP Fit Center  286 is at   0.929063 -2.034363 -0.814008
      ESP Fit Center  287 is at   1.297279 -1.821773 -0.814008
      ESP Fit Center  288 is at   1.618608 -1.543340 -0.814008
      ESP Fit Center  289 is at   1.881437 -1.209126 -0.814008
      ESP Fit Center  290 is at   2.076266 -0.831211 -0.814008
      ESP Fit Center  291 is at   2.196053 -0.423254 -0.814008
      ESP Fit Center  292 is at   2.061140  0.000000 -1.190000
      ESP Fit Center  293 is at   2.018949  0.414905 -1.190000
      ESP Fit Center  294 is at   1.894101  0.812823 -1.190000
      ESP Fit Center  295 is at   1.691709  1.177464 -1.190000
      ESP Fit Center  296 is at   1.420058  1.493900 -1.190000
      ESP Fit Center  297 is at   1.090269  1.749175 -1.190000
      ESP Fit Center  298 is at   0.715845  1.932839 -1.190000
      ESP Fit Center  299 is at   0.312114  2.037372 -1.190000
      ESP Fit Center  300 is at  -0.104395  2.058495 -1.190000
      ESP Fit Center  301 is at  -0.516630  1.995343 -1.190000
      ESP Fit Center  302 is at  -0.907714  1.850501 -1.190000
      ESP Fit Center  303 is at  -1.261636  1.629900 -1.190000
      ESP Fit Center  304 is at  -1.563907  1.342570 -1.190000
      ESP Fit Center  305 is at  -1.802151  1.000276 -1.190000
      ESP Fit Center  306 is at  -1.966615  0.617029 -1.190000
      ESP Fit Center  307 is at  -2.050565  0.208522 -1.190000
      ESP Fit Center  308 is at  -2.050565 -0.208522 -1.190000
      ESP Fit Center  309 is at  -1.966615 -0.617029 -1.190000
      ESP Fit Center  310 is at  -1.802151 -1.000276 -1.190000
      ESP Fit Center  311 is at  -1.563907 -1.342570 -1.190000
      ESP Fit Center  312 is at  -1.261636 -1.629900 -1.190000
      ESP Fit Center  313 is at  -0.907714 -1.850501 -1.190000
      ESP Fit Center  314 is at  -0.516630 -1.995343 -1.190000
      ESP Fit Center  315 is at  -0.104395 -2.058495 -1.190000
      ESP Fit Center  316 is at   0.312114 -2.037372 -1.190000
      ESP Fit Center  317 is at   0.715845 -1.932839 -1.190000
      ESP Fit Center  318 is at   1.090269 -1.749175 -1.190000
      ESP Fit Center  319 is at   1.420058 -1.493900 -1.190000
      ESP Fit Center  320 is at   1.691709 -1.177464 -1.190000
      ESP Fit Center  321 is at   1.894101 -0.812823 -1.190000
      ESP Fit Center  322 is at   2.018949 -0.414905 -1.190000
      ESP Fit Center  323 is at   1.823186  0.000000 -1.529835
      ESP Fit Center  324 is at   1.774042  0.420456 -1.529835
      ESP Fit Center  325 is at   1.629258  0.818244 -1.529835
      ESP Fit Center  326 is at   1.396641  1.171921 -1.529835
      ESP Fit Center  327 is at   1.088731  1.462420 -1.529835
      ESP Fit Center  328 is at   0.722127  1.674079 -1.529835
      ESP Fit Center  329 is at   0.316593  1.795487 -1.529835
      ESP Fit Center  330 is at  -0.106009  1.820101 -1.529835
      ESP Fit Center  331 is at  -0.522896  1.746593 -1.529835
      ESP Fit Center  332 is at  -0.911593  1.578925 -1.529835
      ESP Fit Center  333 is at  -1.251146  1.326137 -1.529835
      ESP Fit Center  334 is at  -1.523249  1.001857 -1.529835
      ESP Fit Center  335 is at  -1.713234  0.623566 -1.529835
      ESP Fit Center  336 is at  -1.810858  0.211659 -1.529835
      ESP Fit Center  337 is at  -1.810858 -0.211659 -1.529835
      ESP Fit Center  338 is at  -1.713234 -0.623566 -1.529835
      ESP Fit Center  339 is at  -1.523249 -1.001857 -1.529835
      ESP Fit Center  340 is at  -1.251146 -1.326137 -1.529835
      ESP Fit Center  341 is at  -0.911593 -1.578925 -1.529835
      ESP Fit Center  342 is at  -0.522896 -1.746593 -1.529835
      ESP Fit Center  343 is at  -0.106009 -1.820101 -1.529835
      ESP Fit Center  344 is at   0.316593 -1.795487 -1.529835
      ESP Fit Center  345 is at   0.722127 -1.674079 -1.529835
      ESP Fit Center  346 is at   1.088731 -1.462420 -1.529835
      ESP Fit Center  347 is at   1.396641 -1.171921 -1.529835
      ESP Fit Center  348 is at   1.629258 -0.818244 -1.529835
      ESP Fit Center  349 is at   1.774042 -0.420456 -1.529835
      ESP Fit Center  350 is at   1.529835  0.000000 -1.823186
      ESP Fit Center  351 is at   1.473104  0.412744 -1.823186
      ESP Fit Center  352 is at   1.307120  0.794877 -1.823186
      ESP Fit Center  353 is at   1.044193  1.118058 -1.823186
      ESP Fit Center  354 is at   0.703823  1.358317 -1.823186
      ESP Fit Center  355 is at   0.311254  1.497837 -1.823186
      ESP Fit Center  356 is at  -0.104400  1.526268 -1.823186
      ESP Fit Center  357 is at  -0.512310  1.441503 -1.823186
      ESP Fit Center  358 is at  -0.882225  1.249829 -1.823186
      ESP Fit Center  359 is at  -1.186710  0.965460 -1.823186
      ESP Fit Center  360 is at  -1.403182  0.609488 -1.823186
      ESP Fit Center  361 is at  -1.515586  0.208312 -1.823186
      ESP Fit Center  362 is at  -1.515586 -0.208312 -1.823186
      ESP Fit Center  363 is at  -1.403182 -0.609488 -1.823186
      ESP Fit Center  364 is at  -1.186710 -0.965460 -1.823186
      ESP Fit Center  365 is at  -0.882225 -1.249829 -1.823186
      ESP Fit Center  366 is at  -0.512310 -1.441503 -1.823186
      ESP Fit Center  367 is at  -0.104400 -1.526268 -1.823186
      ESP Fit Center  368 is at   0.311254 -1.497837 -1.823186
      ESP Fit Center  369 is at   0.703823 -1.358317 -1.823186
      ESP Fit Center  370 is at   1.044193 -1.118058 -1.823186
      ESP Fit Center  371 is at   1.307120 -0.794877 -1.823186
      ESP Fit Center  372 is at   1.473104 -0.412744 -1.823186
      ESP Fit Center  373 is at   1.190000  0.000000 -2.061140
      ESP Fit Center  374 is at   1.118234  0.407004 -2.061140
      ESP Fit Center  375 is at   0.911593  0.764917 -2.061140
      ESP Fit Center  376 is at   0.595000  1.030570 -2.061140
      ESP Fit Center  377 is at   0.206641  1.171921 -2.061140
      ESP Fit Center  378 is at  -0.206641  1.171921 -2.061140
      ESP Fit Center  379 is at  -0.595000  1.030570 -2.061140
      ESP Fit Center  380 is at  -0.911593  0.764917 -2.061140
      ESP Fit Center  381 is at  -1.118234  0.407004 -2.061140
      ESP Fit Center  382 is at  -1.190000  0.000000 -2.061140
      ESP Fit Center  383 is at  -1.118234 -0.407004 -2.061140
      ESP Fit Center  384 is at  -0.911593 -0.764917 -2.061140
      ESP Fit Center  385 is at  -0.595000 -1.030570 -2.061140
      ESP Fit Center  386 is at  -0.206641 -1.171921 -2.061140
      ESP Fit Center  387 is at   0.206641 -1.171921 -2.061140
      ESP Fit Center  388 is at   0.595000 -1.030570 -2.061140
      ESP Fit Center  389 is at   0.911593 -0.764917 -2.061140
      ESP Fit Center  390 is at   1.118234 -0.407004 -2.061140
      ESP Fit Center  391 is at   0.814008  0.000000 -2.236468
      ESP Fit Center  392 is at   0.704952  0.407004 -2.236468
      ESP Fit Center  393 is at   0.407004  0.704952 -2.236468
      ESP Fit Center  394 is at   0.000000  0.814008 -2.236468
      ESP Fit Center  395 is at  -0.407004  0.704952 -2.236468
      ESP Fit Center  396 is at  -0.704952  0.407004 -2.236468
      ESP Fit Center  397 is at  -0.814008  0.000000 -2.236468
      ESP Fit Center  398 is at  -0.704952 -0.407004 -2.236468
      ESP Fit Center  399 is at  -0.407004 -0.704952 -2.236468
      ESP Fit Center  400 is at  -0.000000 -0.814008 -2.236468
      ESP Fit Center  401 is at   0.407004 -0.704952 -2.236468
      ESP Fit Center  402 is at   0.704952 -0.407004 -2.236468
      ESP Fit Center  403 is at   0.413283  0.000000 -2.343842
      ESP Fit Center  404 is at   0.206641  0.357913 -2.343842
      ESP Fit Center  405 is at  -0.206641  0.357913 -2.343842
      ESP Fit Center  406 is at  -0.413283  0.000000 -2.343842
      ESP Fit Center  407 is at  -0.206641 -0.357913 -2.343842
      ESP Fit Center  408 is at   0.206641 -0.357913 -2.343842
      ESP Fit Center  409 is at   0.000000  0.000000 -2.380000
      ESP Fit Center  410 is at   0.000000  0.000000  2.720000
      ESP Fit Center  411 is at   0.425502  0.000000  2.686512
      ESP Fit Center  412 is at   0.212751  0.368495  2.686512
      ESP Fit Center  413 is at  -0.212751  0.368495  2.686512
      ESP Fit Center  414 is at  -0.425502  0.000000  2.686512
      ESP Fit Center  415 is at  -0.212751 -0.368495  2.686512
      ESP Fit Center  416 is at   0.212751 -0.368495  2.686512
      ESP Fit Center  417 is at   0.840526  0.000000  2.586874
      ESP Fit Center  418 is at   0.727917  0.420263  2.586874
      ESP Fit Center  419 is at   0.420263  0.727917  2.586874
      ESP Fit Center  420 is at   0.000000  0.840526  2.586874
      ESP Fit Center  421 is at  -0.420263  0.727917  2.586874
      ESP Fit Center  422 is at  -0.727917  0.420263  2.586874
      ESP Fit Center  423 is at  -0.840526  0.000000  2.586874
      ESP Fit Center  424 is at  -0.727917 -0.420263  2.586874
      ESP Fit Center  425 is at  -0.420263 -0.727917  2.586874
      ESP Fit Center  426 is at  -0.000000 -0.840526  2.586874
      ESP Fit Center  427 is at   0.420263 -0.727917  2.586874
      ESP Fit Center  428 is at   0.727917 -0.420263  2.586874
      ESP Fit Center  429 is at   1.234854  0.000000  2.423538
      ESP Fit Center  430 is at   1.160383  0.422345  2.423538
      ESP Fit Center  431 is at   0.945953  0.793749  2.423538
      ESP Fit Center  432 is at   0.617427  1.069415  2.423538
      ESP Fit Center  433 is at   0.214430  1.216094  2.423538
      ESP Fit Center  434 is at  -0.214430  1.216094  2.423538
      ESP Fit Center  435 is at  -0.617427  1.069415  2.423538
      ESP Fit Center  436 is at  -0.945953  0.793749  2.423538
      ESP Fit Center  437 is at  -1.160383  0.422345  2.423538
      ESP Fit Center  438 is at  -1.234854  0.000000  2.423538
      ESP Fit Center  439 is at  -1.160383 -0.422345  2.423538
      ESP Fit Center  440 is at  -0.945953 -0.793749  2.423538
      ESP Fit Center  441 is at  -0.617427 -1.069415  2.423538
      ESP Fit Center  442 is at  -0.214430 -1.216094  2.423538
      ESP Fit Center  443 is at   0.214430 -1.216094  2.423538
      ESP Fit Center  444 is at   0.617427 -1.069415  2.423538
      ESP Fit Center  445 is at   0.945953 -0.793749  2.423538
      ESP Fit Center  446 is at   1.160383 -0.422345  2.423538
      ESP Fit Center  447 is at   1.598776  0.000000  2.200526
      ESP Fit Center  448 is at   1.544299  0.413794  2.200526
      ESP Fit Center  449 is at   1.384581  0.799388  2.200526
      ESP Fit Center  450 is at   1.130505  1.130505  2.200526
      ESP Fit Center  451 is at   0.799388  1.384581  2.200526
      ESP Fit Center  452 is at   0.413794  1.544299  2.200526
      ESP Fit Center  453 is at   0.000000  1.598776  2.200526
      ESP Fit Center  454 is at  -0.413794  1.544299  2.200526
      ESP Fit Center  455 is at  -0.799388  1.384581  2.200526
      ESP Fit Center  456 is at  -1.130505  1.130505  2.200526
      ESP Fit Center  457 is at  -1.384581  0.799388  2.200526
      ESP Fit Center  458 is at  -1.544299  0.413794  2.200526
      ESP Fit Center  459 is at  -1.598776  0.000000  2.200526
      ESP Fit Center  460 is at  -1.544299 -0.413794  2.200526
      ESP Fit Center  461 is at  -1.384581 -0.799388  2.200526
      ESP Fit Center  462 is at  -1.130505 -1.130505  2.200526
      ESP Fit Center  463 is at  -0.799388 -1.384581  2.200526
      ESP Fit Center  464 is at  -0.413794 -1.544299  2.200526
      ESP Fit Center  465 is at  -0.000000 -1.598776  2.200526
      ESP Fit Center  466 is at   0.413794 -1.544299  2.200526
      ESP Fit Center  467 is at   0.799388 -1.384581  2.200526
      ESP Fit Center  468 is at   1.130505 -1.130505  2.200526
      ESP Fit Center  469 is at   1.384581 -0.799388  2.200526
      ESP Fit Center  470 is at   1.544299 -0.413794  2.200526
      ESP Fit Center  471 is at   1.923330  0.000000  1.923330
      ESP Fit Center  472 is at   1.875109  0.427981  1.923330
      ESP Fit Center  473 is at   1.732861  0.834502  1.923330
      ESP Fit Center  474 is at   1.503720  1.199177  1.923330
      ESP Fit Center  475 is at   1.199177  1.503720  1.923330
      ESP Fit Center  476 is at   0.834502  1.732861  1.923330
      ESP Fit Center  477 is at   0.427981  1.875109  1.923330
      ESP Fit Center  478 is at   0.000000  1.923330  1.923330
      ESP Fit Center  479 is at  -0.427981  1.875109  1.923330
      ESP Fit Center  480 is at  -0.834502  1.732861  1.923330
      ESP Fit Center  481 is at  -1.199177  1.503720  1.923330
      ESP Fit Center  482 is at  -1.503720  1.199177  1.923330
      ESP Fit Center  483 is at  -1.732861  0.834502  1.923330
      ESP Fit Center  484 is at  -1.875109  0.427981  1.923330
      ESP Fit Center  485 is at  -1.923330  0.000000  1.923330
      ESP Fit Center  486 is at  -1.875109 -0.427981  1.923330
      ESP Fit Center  487 is at  -1.732861 -0.834502  1.923330
      ESP Fit Center  488 is at  -1.503720 -1.199177  1.923330
      ESP Fit Center  489 is at  -1.199177 -1.503720  1.923330
      ESP Fit Center  490 is at  -0.834502 -1.732861  1.923330
      ESP Fit Center  491 is at  -0.427981 -1.875109  1.923330
      ESP Fit Center  492 is at  -0.000000 -1.923330  1.923330
      ESP Fit Center  493 is at   0.427981 -1.875109  1.923330
      ESP Fit Center  494 is at   0.834502 -1.732861  1.923330
      ESP Fit Center  495 is at   1.199177 -1.503720  1.923330
      ESP Fit Center  496 is at   1.503720 -1.199177  1.923330
      ESP Fit Center  497 is at   1.732861 -0.834502  1.923330
      ESP Fit Center  498 is at   1.875109 -0.427981  1.923330
      ESP Fit Center  499 is at   2.200526  0.000000  1.598776
      ESP Fit Center  500 is at   2.160760  0.416452  1.598776
      ESP Fit Center  501 is at   2.042898  0.817853  1.598776
      ESP Fit Center  502 is at   1.851200  1.189694  1.598776
      ESP Fit Center  503 is at   1.592596  1.518537  1.598776
      ESP Fit Center  504 is at   1.276430  1.792496  1.598776
      ESP Fit Center  505 is at   0.914132  2.001669  1.598776
      ESP Fit Center  506 is at   0.518794  2.138497  1.598776
      ESP Fit Center  507 is at   0.104705  2.198034  1.598776
      ESP Fit Center  508 is at  -0.313168  2.178128  1.598776
      ESP Fit Center  509 is at  -0.719722  2.079499  1.598776
      ESP Fit Center  510 is at  -1.100263  1.905712  1.598776
      ESP Fit Center  511 is at  -1.441038  1.663047  1.598776
      ESP Fit Center  512 is at  -1.729730  1.360275  1.598776
      ESP Fit Center  513 is at  -1.955906  1.008339  1.598776
      ESP Fit Center  514 is at  -2.111389  0.619960  1.598776
      ESP Fit Center  515 is at  -2.190562  0.209173  1.598776
      ESP Fit Center  516 is at  -2.190562 -0.209173  1.598776
      ESP Fit Center  517 is at  -2.111389 -0.619960  1.598776
      ESP Fit Center  518 is at  -1.955906 -1.008339  1.598776
      ESP Fit Center  519 is at  -1.729730 -1.360275  1.598776
      ESP Fit Center  520 is at  -1.441038 -1.663047  1.598776
      ESP Fit Center  521 is at  -1.100263 -1.905712  1.598776
      ESP Fit Center  522 is at  -0.719722 -2.079499  1.598776
      ESP Fit Center  523 is at  -0.313168 -2.178128  1.598776
      ESP Fit Center  524 is at   0.104705 -2.198034  1.598776
      ESP Fit Center  525 is at   0.518794 -2.138497  1.598776
      ESP Fit Center  526 is at   0.914132 -2.001669  1.598776
      ESP Fit Center  527 is at   1.276430 -1.792496  1.598776
      ESP Fit Center  528 is at   1.592596 -1.518537  1.598776
      ESP Fit Center  529 is at   1.851200 -1.189694  1.598776
      ESP Fit Center  530 is at   2.042898 -0.817853  1.598776
      ESP Fit Center  531 is at   2.160760 -0.416452  1.598776
      ESP Fit Center  532 is at   2.423538  0.000000  1.234854
      ESP Fit Center  533 is at   2.386719  0.420843  1.234854
      ESP Fit Center  534 is at   2.277381  0.828899  1.234854
      ESP Fit Center  535 is at   2.098845  1.211769  1.234854
      ESP Fit Center  536 is at   1.856538  1.557820  1.234854
      ESP Fit Center  537 is at   1.557820  1.856538  1.234854
      ESP Fit Center  538 is at   1.211769  2.098845  1.234854
      ESP Fit Center  539 is at   0.828899  2.277381  1.234854
      ESP Fit Center  540 is at   0.420843  2.386719  1.234854
      ESP Fit Center  541 is at   0.000000  2.423538  1.234854
      ESP Fit Center  542 is at  -0.420843  2.386719  1.234854
      ESP Fit Center  543 is at  -0.828899  2.277381  1.234854
      ESP Fit Center  544 is at  -1.211769  2.098845  1.234854
      ESP Fit Center  545 is at  -1.557820  1.856538  1.234854
      ESP Fit Center  546 is at  -1.856538  1.557820  1.234854
      ESP Fit Center  547 is at  -2.098845  1.211769  1.234854
      ESP Fit Center  548 is at  -2.277381  0.828899  1.234854
      ESP Fit Center  549 is at  -2.386719  0.420843  1.234854
      ESP Fit Center  550 is at  -2.423538  0.000000  1.234854
      ESP Fit Center  551 is at  -2.386719 -0.420843  1.234854
      ESP Fit Center  552 is at  -2.277381 -0.828899  1.234854
      ESP Fit Center  553 is at  -2.098845 -1.211769  1.234854
      ESP Fit Center  554 is at  -1.856538 -1.557820  1.234854
      ESP Fit Center  555 is at  -1.557820 -1.856538  1.234854
      ESP Fit Center  556 is at  -1.211769 -2.098845  1.234854
      ESP Fit Center  557 is at  -0.828899 -2.277381  1.234854
      ESP Fit Center  558 is at  -0.420843 -2.386719  1.234854
      ESP Fit Center  559 is at  -0.000000 -2.423538  1.234854
      ESP Fit Center  560 is at   0.420843 -2.386719  1.234854
      ESP Fit Center  561 is at   0.828899 -2.277381  1.234854
      ESP Fit Center  562 is at   1.211769 -2.098845  1.234854
      ESP Fit Center  563 is at   1.557820 -1.856538  1.234854
      ESP Fit Center  564 is at   1.856538 -1.557820  1.234854
      ESP Fit Center  565 is at   2.098845 -1.211769  1.234854
      ESP Fit Center  566 is at   2.277381 -0.828899  1.234854
      ESP Fit Center  567 is at   2.386719 -0.420843  1.234854
      ESP Fit Center  568 is at   2.586874  0.000000  0.840526
      ESP Fit Center  569 is at   2.551592  0.425785  0.840526
      ESP Fit Center  570 is at   2.446710  0.839957  0.840526
      ESP Fit Center  571 is at   2.275088  1.231216  0.840526
      ESP Fit Center  572 is at   2.041407  1.588891  0.840526
      ESP Fit Center  573 is at   1.752042  1.903225  0.840526
      ESP Fit Center  574 is at   1.414886  2.165644  0.840526
      ESP Fit Center  575 is at   1.039135  2.368990  0.840526
      ESP Fit Center  576 is at   0.635040  2.507716  0.840526
      ESP Fit Center  577 is at   0.213622  2.578038  0.840526
      ESP Fit Center  578 is at  -0.213622  2.578038  0.840526
      ESP Fit Center  579 is at  -0.635040  2.507716  0.840526
      ESP Fit Center  580 is at  -1.039135  2.368990  0.840526
      ESP Fit Center  581 is at  -1.414886  2.165644  0.840526
      ESP Fit Center  582 is at  -1.752042  1.903225  0.840526
      ESP Fit Center  583 is at  -2.041407  1.588891  0.840526
      ESP Fit Center  584 is at  -2.275088  1.231216  0.840526
      ESP Fit Center  585 is at  -2.446710  0.839957  0.840526
      ESP Fit Center  586 is at  -2.551592  0.425785  0.840526
      ESP Fit Center  587 is at  -2.586874  0.000000  0.840526
      ESP Fit Center  588 is at  -2.551592 -0.425785  0.840526
      ESP Fit Center  589 is at  -2.446710 -0.839957  0.840526
      ESP Fit Center  590 is at  -2.275088 -1.231216  0.840526
      ESP Fit Center  591 is at  -2.041407 -1.588891  0.840526
      ESP Fit Center  592 is at  -1.752042 -1.903225  0.840526
[...]
 (Enter /software/sse/easybuild/prefix/software/Gaussian/16.C.01-avx2-nsc1/g16/l1102.exe)
 Symmetrizing basis deriv contribution to polar:
 IMax=3 JMax=2 DiffMx= 0.00D+00
 Leave Link 1102 at Wed Jun 19 08:44:17 2024, MaxMem=  1572864000 cpu:               0.3 elap:               0.1
 (Enter /software/sse/easybuild/prefix/software/Gaussian/16.C.01-avx2-nsc1/g16/l1110.exe)
 Forming Gx(P) for the SCF density, NAtomX=     1.
 Integral derivatives from FoFJK, PRISM(SPDF).
 Do as many integral derivatives as possible in FoFJK.
 G2DrvN: MDV=    1572863767.
 G2DrvN: will do     2 centers at a time, making    1 passes.
 PxScal for G2LodP:  IOpCl= 0 ISclPx=1 IMOff=     1 NMtTot=     4 NTT=    1275 ScalPx= 2.29D+00
 Calling FoFCou, ICntrl=  3107 FMM=F I1Cent=   0 AccDes= 0.00D+00.
 FoFJK:  IHMeth= 1 ICntrl=    3107 DoSepK=F KAlg= 0 I1Cent=           0 FoldK=F
 IRaf=         0 NMat=       1 IRICut=       1 DoRegI=T DoRafI=F ISym2E= 1 IDoP0=0 IntGTp=1.
 FoFCou: FMM=F IPFlag=           0 FMFlag=      100000 FMFlg1=           0
         NFxFlg=           0 DoJE=F BraDBF=F KetDBF=F FulRan=T
         wScrn=  0.000000 ICntrl=      3107 IOpCl=  0 I1Cent=           0 NGrid=           0
         NMat0=    1 NMatS0=      1 NMatT0=    0 NMatD0=    4 NMtDS0=    3 NMtDT0=    0
 Petite list used in FoFCou.
 End of G2Drv F.D. properties file   721 does not exist.
 End of G2Drv F.D. properties file   722 does not exist.
 End of G2Drv F.D. properties file   788 does not exist.
 Leave Link 1110 at Wed Jun 19 08:44:18 2024, MaxMem=  1572864000 cpu:               3.5 elap:               0.5
 (Enter /software/sse/easybuild/prefix/software/Gaussian/16.C.01-avx2-nsc1/g16/l1002.exe)
 Minotr:  Closed shell wavefunction.
          IDoAtm=1
          Direct CPHF calculation.
          Differentiating once with respect to electric field.
                with respect to dipole field.
          Differentiating once with respect to nuclear coordinates.
          Using symmetry in CPHF.
          Requested convergence is 1.0D-08 RMS, and 1.0D-07 maximum.
          Secondary convergence is 1.0D-12 RMS, and 1.0D-12 maximum.
          NewPWx=T KeepS1=F KeepF1=F KeepIn=T MapXYZ=F SortEE=F KeepMc=T.
 Keep R1 ints in memory in symmetry-blocked form, NReq=4746626.
 FoFCou: FMM=F IPFlag=           0 FMFlag=           0 FMFlg1=           0
         NFxFlg=           0 DoJE=F BraDBF=F KetDBF=F FulRan=T
         wScrn=  0.000000 ICntrl=       600 IOpCl=  0 I1Cent=           0 NGrid=           0
         NMat0=    1 NMatS0=   1275 NMatT0=    0 NMatD0=    1 NMtDS0=    0 NMtDT0=    0
 Petite list used in FoFCou.
          MDV=    1572864000 using IRadAn=       1.
          Solving linear equations simultaneously, MaxMat=       0.
 FoF2E skips out because all densities are zero.
          There are     6 degrees of freedom in the 1st order CPHF.  IDoFFX=5 NUNeed=     6.
 Will reuse    3 saved solutions.
      0 vectors produced by pass  0 Test12= 6.15D-15 1.67D-08 XBig12= 0.00D+00 0.00D+00.
 FullF1:  Do perturbations      1 to       3.
 Isotropic polarizability for W=    0.000000       25.50 Bohr**3.
 FullF1:  Do perturbations      1 to       6.
 End of Minotr F.D. properties file   721 does not exist.
 End of Minotr F.D. properties file   722 does not exist.
 End of Minotr F.D. properties file   788 does not exist.
 Leave Link 1002 at Wed Jun 19 08:44:18 2024, MaxMem=  1572864000 cpu:               2.1 elap:               0.3
 (Enter /software/sse/easybuild/prefix/software/Gaussian/16.C.01-avx2-nsc1/g16/l601.exe)
 Copying SCF densities to generalized density rwf, IOpCl= 0 IROHF=0.

 **********************************************************************

            Population analysis using the SCF Density.

 **********************************************************************

 Orbital symmetries:
       Occupied  (A1G) (A1G) (T1U) (T1U) (T1U) (A1G) (T1U) (T1U)
                 (T1U)
       Virtual   (T1U) (T1U) (T1U) (A1G) (EG) (EG) (T2G) (T2G)
                 (T2G) (T1U) (T1U) (T1U) (A1G) (T2G) (T2G) (T2G)
                 (EG) (EG) (?A) (?A) (?A) (A2U) (?A) (?A) (?A)
                 (EG) (EG) (T2G) (T2G) (T2G) (T1U) (T1U) (T1U)
                 (?A) (?A) (?A) (?A) (A2U) (?A) (?A) (A1G)
 The electronic state is 1-A1G.
 Alpha  occ. eigenvalues -- -104.50595 -10.22974  -7.69577  -7.69577  -7.69577
 Alpha  occ. eigenvalues --   -0.73351  -0.15034  -0.15034  -0.15034
 Alpha virt. eigenvalues --    0.28901   0.28901   0.28901   0.33933   0.59538
 Alpha virt. eigenvalues --    0.59538   0.59538   0.59538   0.59538   0.89553
 Alpha virt. eigenvalues --    0.89553   0.89553   1.20012   1.22157   1.22157
 Alpha virt. eigenvalues --    1.22157   1.22157   1.22157   1.46767   1.46767
 Alpha virt. eigenvalues --    1.46767   1.46767   1.46767   1.46767   1.46767
 Alpha virt. eigenvalues --    2.82683   2.82683   2.82683   2.82683   2.82683
 Alpha virt. eigenvalues --    2.98393   2.98393   2.98393   3.36941   3.36941
 Alpha virt. eigenvalues --    3.36941   3.36941   3.36941   3.36941   3.36941
 Alpha virt. eigenvalues --    5.36395
          Condensed to atoms (all electrons):
               1
     1  Cl  18.000000
 Mulliken charges:
               1
     1  Cl  -1.000000
 Sum of Mulliken charges =  -1.00000
 Mulliken charges with hydrogens summed into heavy atoms:
               1
     1  Cl  -1.000000
 APT charges:
               1
     1  Cl  -1.000000
 Sum of APT charges =  -1.00000
 APT charges with hydrogens summed into heavy atoms:
               1
     1  Cl  -1.000000
 Electronic spatial extent (au):  <R**2>=             38.4334
 Charge=             -1.0000 electrons
 Dipole moment (field-independent basis, Debye):
    X=              0.0000    Y=              0.0000    Z=              0.0000  Tot=              0.0000
 Quadrupole moment (field-independent basis, Debye-Ang):
   XX=            -17.2314   YY=            -17.2314   ZZ=            -17.2314
   XY=              0.0000   XZ=              0.0000   YZ=             -0.0000
 Traceless Quadrupole moment (field-independent basis, Debye-Ang):
   XX=              0.0000   YY=              0.0000   ZZ=              0.0000
   XY=              0.0000   XZ=              0.0000   YZ=             -0.0000
 Octapole moment (field-independent basis, Debye-Ang**2):
  XXX=              0.0000  YYY=              0.0000  ZZZ=              0.0000  XYY=              0.0000
  XXY=              0.0000  XXZ=              0.0000  XZZ=              0.0000  YZZ=              0.0000
  YYZ=              0.0000  XYZ=              0.0000
 Hexadecapole moment (field-independent basis, Debye-Ang**3):
 XXXX=            -29.3403 YYYY=            -29.3403 ZZZZ=            -29.3403 XXXY=              0.0000
 XXXZ=              0.0000 YYYX=              0.0000 YYYZ=             -0.0000 ZZZX=              0.0000
 ZZZY=             -0.0000 XXYY=             -9.7801 XXZZ=             -9.7801 YYZZ=             -9.7801
 XXYZ=             -0.0000 YYXZ=              0.0000 ZZXY=              0.0000
 N-N= 0.000000000000D+00 E-N=-1.100704756596D+03  KE= 4.595728133339D+02
 Symmetry AG   KE= 3.237348801663D+02
 Symmetry B1G  KE= 3.565490693284D-61
 Symmetry B2G  KE= 4.126998142320D-61
 Symmetry B3G  KE= 3.452154917793D-61
 Symmetry AU   KE= 4.196984224778D-61
 Symmetry B1U  KE= 4.527931105588D+01
 Symmetry B2U  KE= 4.527931105588D+01
 Symmetry B3U  KE= 4.527931105588D+01
 There are a total of       21798 grid points.
 ElSum from          density=       17.9999999981
 ElSum from atomic densities=       17.0000000033

 Hirshfeld populations at iteration   1 (CX, CA, CB, DipXYZ):
               1          2          3          4          5          6
     1  Cl   0.000686   9.000000   9.000000   0.000000  -0.000000  -0.000000
       Tot   0.000686   9.000000   9.000000   0.000000  -0.000000  -0.000000

 Dip from Atomic Chgs              0.000000   0.000000   0.000000
         Total Dipole              0.000000  -0.000000  -0.000000

 Hirshfeld charges, spin densities, dipoles, and CM5 charges using IRadAn=      5:
              Q-H        S-H        Dx         Dy         Dz        Q-CM5   
     1  Cl  -1.000000   0.000000   0.000000  -0.000000  -0.000000  -1.000000
       Tot  -1.000000   0.000000   0.000000  -0.000000  -0.000000  -1.000000
 Hirshfeld charges with hydrogens summed into heavy atoms:
              Q-H       Q-CM5   
     1  Cl  -1.000000  -1.000000
 
 EQQ=  0.00000000000     EQD=  0.00000000000     EDD=  0.00000000000    
 EQQ+QD+DD=  0.00000000000    
 
  Exact polarizability:      25.498       0.000      25.498       0.000       0.000      25.498
 Approx polarizability:      22.104      -0.000      22.104      -0.000      -0.000      22.104
 No NMR shielding tensors so no spin-rotation constants.
 Leave Link  601 at Wed Jun 19 08:44:18 2024, MaxMem=  1572864000 cpu:               1.0 elap:               0.1
 (Enter /software/sse/easybuild/prefix/software/Gaussian/16.C.01-avx2-nsc1/g16/l602.exe)
 FitSet:  NAtFit=     1 NAtPot=     1 NAtFrz=     0 MDM=     5 TotChg=  -1.00000
 Merz-Kollman atomic radii used.
 Read replacement radii for each type of atom:
 Atom Element Radius
    1    17    1.70

 **********************************************************************

            Electrostatic Properties Using The SCF Density.

 **********************************************************************

       Atomic Center    1 is at   0.000000  0.000000  0.000000
     380 points will be used for fitting atomic charges
 Fitting point charges to electrostatic potential
 Charges from ESP fit, RMS=   0.00222 RRMS=   0.01234:
 ESP charges:
               1
     1  Cl  -1.000000
 Sum of ESP charges =  -1.00000
 ESP charges with hydrogens summed into heavy atoms:
               1
     1  Cl  -1.000000
 Charge=  -1.00000 Dipole=     0.0000     0.0000     0.0000 Tot=     0.0000
 -----------------------------------------------------------------

              Electrostatic Properties (Atomic Units)

 -----------------------------------------------------------------
    Center     Electric         -------- Electric Field --------
               Potential          X             Y             Z
 -----------------------------------------------------------------
    1 Atom    -64.747337
 -----------------------------------------------------------------
 Leave Link  602 at Wed Jun 19 08:44:18 2024, MaxMem=  1572864000 cpu:               0.2 elap:               0.0
 (Enter /software/sse/easybuild/prefix/software/Gaussian/16.C.01-avx2-nsc1/g16/l701.exe)
 ... and contract with generalized density number  0.
 Compute integral second derivatives.
 Leave Link  701 at Wed Jun 19 08:44:19 2024, MaxMem=  1572864000 cpu:               1.1 elap:               0.2
 (Enter /software/sse/easybuild/prefix/software/Gaussian/16.C.01-avx2-nsc1/g16/l702.exe)
 L702 exits ... SP integral derivatives will be done elsewhere.
 Leave Link  702 at Wed Jun 19 08:44:19 2024, MaxMem=  1572864000 cpu:               0.3 elap:               0.1
 (Enter /software/sse/easybuild/prefix/software/Gaussian/16.C.01-avx2-nsc1/g16/l703.exe)
 Integral derivatives from FoFJK, PRISM(SPDF).
 Compute integral second derivatives, UseDBF=F ICtDFT=           0.
 Calling FoFJK, ICntrl=    100127 FMM=F ISym2X=1 I1Cent= 0 IOpClX= 0 NMat=1 NMatS=1 NMatT=0.
 FoFJK:  IHMeth= 1 ICntrl=  100127 DoSepK=F KAlg= 0 I1Cent=           0 FoldK=F
 IRaf=         0 NMat=       1 IRICut=       1 DoRegI=T DoRafI=F ISym2E= 1 IDoP0=0 IntGTp=1.
 FoFCou: FMM=F IPFlag=           0 FMFlag=      100000 FMFlg1=         800
         NFxFlg=           0 DoJE=F BraDBF=F KetDBF=F FulRan=T
         wScrn=  0.000000 ICntrl=    100127 IOpCl=  0 I1Cent=           0 NGrid=           0
         NMat0=    1 NMatS0=      1 NMatT0=    0 NMatD0=    1 NMtDS0=    0 NMtDT0=    0
 Petite list used in FoFCou.
 Leave Link  703 at Wed Jun 19 08:44:19 2024, MaxMem=  1572864000 cpu:               4.6 elap:               0.6
 (Enter /software/sse/easybuild/prefix/software/Gaussian/16.C.01-avx2-nsc1/g16/l716.exe)
 Dipole        = 0.00000000D+00 0.00000000D+00 0.00000000D+00
 Polarizability= 2.54984714D+01 0.00000000D+00 2.54984714D+01
                 0.00000000D+00 0.00000000D+00 2.54984714D+01
 HyperPolar    = 0.00000000D+00 0.00000000D+00 0.00000000D+00
                 0.00000000D+00 0.00000000D+00 0.00000000D+00
                 0.00000000D+00 0.00000000D+00 0.00000000D+00
                 0.00000000D+00
 Full mass-weighted force constant matrix:
 Low frequencies ---   -0.0066   -0.0066   -0.0066
 Diagonal vibrational polarizability:
        0.0000000       0.0000000       0.0000000
 Diagonal vibrational hyperpolarizability:
        0.0000000       0.0000000       0.0000000
 Harmonic frequencies (cm**-1), IR intensities (KM/Mole), Raman scattering
 activities (A**4/AMU), depolarization ratios for plane and unpolarized
 incident light, reduced masses (AMU), force constants (mDyne/A),
 and normal coordinates:

 -------------------
 - Thermochemistry -
 -------------------
 Temperature   298.150 Kelvin.  Pressure   1.00000 Atm.
 Atom     1 has atomic number 17 and mass  34.96885
 Molecular mass:    34.96885 amu.
 Zero-point vibrational energy          0.0 (Joules/Mol)
                                    0.00000 (Kcal/Mol)
 Vibrational temperatures: 
          (Kelvin)
 
 Zero-point correction=                           0.000000 (Hartree/Particle)
 Thermal correction to Energy=                    0.001416
 Thermal correction to Enthalpy=                  0.002360
 Thermal correction to Gibbs Free Energy=        -0.015023
 Sum of electronic and zero-point Energies=           -459.573481
 Sum of electronic and thermal Energies=              -459.572065
 Sum of electronic and thermal Enthalpies=            -459.571121
 Sum of electronic and thermal Free Energies=         -459.588504
 
                     E (Thermal)             CV                S
                      KCal/Mol        Cal/Mol-Kelvin    Cal/Mol-Kelvin
 Total                    0.889              2.981             36.586
 Electronic               0.000              0.000              0.000
 Translational            0.889              2.981             36.586
 Rotational               0.000              0.000              0.000
 Vibrational              0.000              0.000              0.000
                       Q            Log10(Q)             Ln(Q)
 Total Bot       0.812786D+07          6.909976         15.910808
 Total V=0       0.812786D+07          6.909976         15.910808
 Vib (Bot)       0.100000D+01          0.000000          0.000000
 Vib (V=0)       0.100000D+01          0.000000          0.000000
 Electronic      0.100000D+01          0.000000          0.000000
 Translational   0.812786D+07          6.909976         15.910808
 Rotational      0.100000D+01          0.000000          0.000000
 ***** Axes restored to original set *****
 -------------------------------------------------------------------
 Center     Atomic                   Forces (Hartrees/Bohr)
 Number     Number              X              Y              Z
 -------------------------------------------------------------------
      1       17          -0.000000000   -0.000000000   -0.000000000
 -------------------------------------------------------------------
 Cartesian Forces:  Max     0.000000000 RMS     0.000000000
 Force constants in Cartesian coordinates: 
                1             2             3 
      1  0.000000D+00
      2  0.000000D+00  0.000000D+00
      3  0.000000D+00  0.000000D+00  0.000000D+00
 Leave Link  716 at Wed Jun 19 08:44:19 2024, MaxMem=  1572864000 cpu:               0.3 elap:               0.1
 (Enter /software/sse/easybuild/prefix/software/Gaussian/16.C.01-avx2-nsc1/g16/l103.exe)

 GradGradGradGradGradGradGradGradGradGradGradGradGradGradGradGradGradGrad
 Berny optimization.
 Search for a local minimum.
 Step number   1 out of a maximum of    2
 All quantities printed in internal units (Hartrees-Bohrs-Radians)
 Second derivative matrix not updated -- analytic derivatives used.
 The second derivative matrix:
                          X1        Y1        Z1
           X1          -0.00000
           Y1           0.00000  -0.00000
           Z1           0.00000   0.00000  -0.00000
 ITU=  0
     Eigenvalues --- 
 Angle between quadratic step and forces=  90.00 degrees.
 ClnCor:  largest displacement from symmetrization is 0.00D+00 for atom     0.
 Linear search not attempted -- first point.
 ClnCor:  largest displacement from symmetrization is 0.00D+00 for atom     0.
 B after Tr=     0.000000    0.000000    0.000000
         Rot=    1.000000    0.000000    0.000000    0.000000 Ang=   0.00 deg.
 Variable       Old X    -DE/DX   Delta X   Delta X   Delta X     New X
                                 (Linear)    (Quad)   (Total)
    X1        0.00000  -0.00000   0.00000   0.00000   0.00000   0.00000
    Y1        0.00000  -0.00000   0.00000   0.00000   0.00000   0.00000
    Z1        0.00000  -0.00000   0.00000   0.00000   0.00000   0.00000
         Item               Value     Threshold  Converged?
 Maximum Force            0.000000     0.000002     YES
 RMS     Force            0.000000     0.000001     YES
 Maximum Displacement     0.000000     0.000006     YES
 RMS     Displacement     0.000000     0.000004     YES
 Predicted change in Energy=-0.000000D+00
 Optimization completed.
    -- Stationary point found.
 GradGradGradGradGradGradGradGradGradGradGradGradGradGradGradGradGradGrad

 Leave Link  103 at Wed Jun 19 08:44:19 2024, MaxMem=  1572864000 cpu:               0.2 elap:               0.0
 (Enter /software/sse/easybuild/prefix/software/Gaussian/16.C.01-avx2-nsc1/g16/l9999.exe)
 Dipole is zero, so no output in dipole orientation.

 ----------------------------------------------------------------------

 Electric dipole moment (input orientation):
 (Debye = 10**-18 statcoulomb cm , SI units = C m)
                  (au)            (Debye)         (10**-30 SI)
   Tot        0.000000D+00      0.000000D+00      0.000000D+00
   x          0.000000D+00      0.000000D+00      0.000000D+00
   y          0.000000D+00      0.000000D+00      0.000000D+00
   z          0.000000D+00      0.000000D+00      0.000000D+00

 Dipole polarizability, Alpha (input orientation).
 (esu units = cm**3 , SI units = C**2 m**2 J**-1)
 Alpha(0;0):
               (au)            (10**-24 esu)      (10**-40 SI)
   iso        0.254985D+02      0.377848D+01      0.420413D+01
   aniso      0.000000D+00      0.000000D+00      0.000000D+00
   xx         0.254985D+02      0.377848D+01      0.420413D+01
   yx         0.000000D+00      0.000000D+00      0.000000D+00
   yy         0.254985D+02      0.377848D+01      0.420413D+01
   zx         0.000000D+00      0.000000D+00      0.000000D+00
   zy         0.000000D+00      0.000000D+00      0.000000D+00
   zz         0.254985D+02      0.377848D+01      0.420413D+01

 ----------------------------------------------------------------------

 Test job not archived.
 1\1\NSC-N801\Freq\RHF\Aug-CC-pVTZ\Cl1(1-)\X_DAVVA\19-Jun-2024\0\\#P Ge
 om=AllCheck Guess=TCheck SCRF=Check Test GenChk RHF/Aug-CC-pVTZ Freq\\
 chloride\\-1,1\Cl,0.,0.,0.\\Version=ES64L-G16RevC.01\State=1-A1G\HF=-4
 59.5734815\RMSD=1.951e-10\RMSF=0.000e+00\Thermal=0.0014163\ETot=-459.5
 720652\HTot=-459.571121\GTot=-459.5885042\Dipole=0.,0.,0.\DipoleDeriv=
 -1.,0.,0.,0.,-1.,0.,0.,0.,-1.\Polar=25.4984714,0.,25.4984714,0.,0.,25.
 4984714\PolarDeriv=0.,0.,0.,0.,0.,0.,0.,0.,0.,0.,0.,0.,0.,0.,0.,0.,0.,
 0.\HyperPolar=0.,0.,0.,0.,0.,0.,0.,0.,0.,0.\Quadrupole=0.,0.,0.,0.,0.,
 0.\PG=OH [O(Cl1)]\NImag=0\\0.,0.,0.,0.,0.,0.\\0.,0.,0.\\\@


 THERE'S SMALL CHOICE IN A BOWL OF ROTTEN APPLES.
                     SHAKESPEARE
 Job cpu time:       0 days  0 hours  0 minutes 23.2 seconds.
 Elapsed time:       0 days  0 hours  0 minutes  3.3 seconds.
 File lengths (MBytes):  RWF=     72 Int=      0 D2E=      0 Chk=      8 Scr=      8
 Normal termination of Gaussian 16 at Wed Jun 19 08:44:20 2024.
